

     ************************************************************************
     *************** Dalton - An Electronic Structure Program ***************
     ************************************************************************

    This is output from DALTON release Dalton2017.alpha (2016)
         ( Web site: http://daltonprogram.org )

   ----------------------------------------------------------------------------

    NOTE:
     
    Dalton is an experimental code for the evaluation of molecular
    properties using (MC)SCF, DFT, CI, and CC wave functions.
    The authors accept no responsibility for the performance of
    the code or for the correctness of the results.
     
    The code (in whole or part) is provided under a licence and
    is not to be reproduced for further distribution without
    the written permission of the authors or their representatives.
     
    See the home page "http://daltonprogram.org" for further information.
     
    If results obtained with this code are published,
    the appropriate citations would be both of:
     
       K. Aidas, C. Angeli, K. L. Bak, V. Bakken, R. Bast,
       L. Boman, O. Christiansen, R. Cimiraglia, S. Coriani,
       J. Cukras, P. Dahle, E. K. Dalskov, U. Ekstroem,
       T. Enevoldsen, J. J. Eriksen, P. Ettenhuber, B. Fernandez,
       L. Ferrighi, H. Fliegl, L. Frediani, K. Hald, A. Halkier,
       C. Haettig, H. Heiberg, T. Helgaker, A. C. Hennum,
       H. Hettema, E. Hjertenaes, S. Hoest, I.-M. Hoeyvik,
       M. F. Iozzi, B. Jansik, H. J. Aa. Jensen, D. Jonsson,
       P. Joergensen, M. Kaminski, J. Kauczor, S. Kirpekar,
       T. Kjaergaard, W. Klopper, S. Knecht, R. Kobayashi, H. Koch,
       J. Kongsted, A. Krapp, K. Kristensen, A. Ligabue,
       O. B. Lutnaes, J. I. Melo, K. V. Mikkelsen, R. H. Myhre,
       C. Neiss, C. B. Nielsen, P. Norman, J. Olsen,
       J. M. H. Olsen, A. Osted, M. J. Packer, F. Pawlowski,
       T. B. Pedersen, P. F. Provasi, S. Reine, Z. Rinkevicius,
       T. A. Ruden, K. Ruud, V. Rybkin, P. Salek, C. C. M. Samson,
       A. Sanchez de Meras, T. Saue, S. P. A. Sauer,
       B. Schimmelpfennig, K. Sneskov, A. H. Steindal,
       K. O. Sylvester-Hvid, P. R. Taylor, A. M. Teale,
       E. I. Tellgren, D. P. Tew, A. J. Thorvaldsen, L. Thoegersen,
       O. Vahtras, M. A. Watson, D. J. D. Wilson, M. Ziolkowski
       and H. Agren,
       "The Dalton quantum chemistry program system",
       WIREs Comput. Mol. Sci. 2014, 4:269–284 (doi: 10.1002/wcms.1172)
     
    and
     
       Dalton, a Molecular Electronic Structure Program,
       Release Dalton2017.alpha (2016), see http://daltonprogram.org
   ----------------------------------------------------------------------------

    Authors in alphabetical order (major contribution(s) in parenthesis):

  Kestutis Aidas,           Vilnius University,           Lithuania   (QM/MM)
  Celestino Angeli,         University of Ferrara,        Italy       (NEVPT2)
  Keld L. Bak,              UNI-C,                        Denmark     (AOSOPPA, non-adiabatic coupling, magnetic properties)
  Vebjoern Bakken,          University of Oslo,           Norway      (DALTON; geometry optimizer, symmetry detection)
  Radovan Bast,             UiT The Arctic U. of Norway,  Norway      (DALTON installation and execution frameworks)
  Pablo Baudin,             University of Valencia,       Spain       (Cholesky excitation energies)
  Linus Boman,              NTNU,                         Norway      (Cholesky decomposition and subsystems)
  Ove Christiansen,         Aarhus University,            Denmark     (CC module)
  Renzo Cimiraglia,         University of Ferrara,        Italy       (NEVPT2)
  Sonia Coriani,            University of Trieste,        Italy       (CC module, MCD in RESPONS)
  Janusz Cukras,            University of Trieste,        Italy       (MChD in RESPONS)
  Paal Dahle,               University of Oslo,           Norway      (Parallelization)
  Erik K. Dalskov,          UNI-C,                        Denmark     (SOPPA)
  Thomas Enevoldsen,        Univ. of Southern Denmark,    Denmark     (SOPPA)
  Janus J. Eriksen,         Aarhus University,            Denmark     (Polarizable embedding model, TDA)
  Rasmus Faber,             University of Copenhagen,     Denmark     (Vib.avg. NMR with SOPPA, parallel AO-SOPPA)
  Berta Fernandez,          U. of Santiago de Compostela, Spain       (doublet spin, ESR in RESPONS)
  Lara Ferrighi,            Aarhus University,            Denmark     (PCM Cubic response)
  Heike Fliegl,             University of Oslo,           Norway      (CCSD(R12))
  Luca Frediani,            UiT The Arctic U. of Norway,  Norway      (PCM)
  Bin Gao,                  UiT The Arctic U. of Norway,  Norway      (Gen1Int library)
  Christof Haettig,         Ruhr-University Bochum,       Germany     (CC module)
  Kasper Hald,              Aarhus University,            Denmark     (CC module)
  Asger Halkier,            Aarhus University,            Denmark     (CC module)
  Frederik Beyer Hansen,    University of Copenhagen,     Denmark     (Parallel AO-SOPPA)
  Erik D. Hedegaard,        Univ. of Southern Denmark,    Denmark     (Polarizable embedding model, QM/MM)
  Hanne Heiberg,            University of Oslo,           Norway      (geometry analysis, selected one-electron integrals)
  Trygve Helgaker,          University of Oslo,           Norway      (DALTON; ABACUS, ERI, DFT modules, London, and much more)
  Alf Christian Hennum,     University of Oslo,           Norway      (Parity violation)
  Hinne Hettema,            University of Auckland,       New Zealand (quadratic response in RESPONS; SIRIUS supersymmetry)
  Eirik Hjertenaes,         NTNU,                         Norway      (Cholesky decomposition)
  Maria Francesca Iozzi,    University of Oslo,           Norway      (RPA)
  Brano Jansik              Technical Univ. of Ostrava    Czech Rep.  (DFT cubic response)
  Hans Joergen Aa. Jensen,  Univ. of Southern Denmark,    Denmark     (DALTON; SIRIUS, RESPONS, ABACUS modules, London, and much more)
  Dan Jonsson,              UiT The Arctic U. of Norway,  Norway      (cubic response in RESPONS module)
  Poul Joergensen,          Aarhus University,            Denmark     (RESPONS, ABACUS, and CC modules)
  Maciej Kaminski,          University of Warsaw,         Poland      (CPPh in RESPONS)
  Joanna Kauczor,           Linkoeping University,        Sweden      (Complex polarization propagator (CPP) module)
  Sheela Kirpekar,          Univ. of Southern Denmark,    Denmark     (Mass-velocity & Darwin integrals)
  Wim Klopper,              KIT Karlsruhe,                Germany     (R12 code in CC, SIRIUS, and ABACUS modules)
  Stefan Knecht,            ETH Zurich,                   Switzerland (Parallel CI and MCSCF)
  Rika Kobayashi,           Australian National Univ.,    Australia   (DIIS in CC, London in MCSCF)
  Henrik Koch,              NTNU,                         Norway      (CC module, Cholesky decomposition)
  Jacob Kongsted,           Univ. of Southern Denmark,    Denmark     (Polarizable embedding model, QM/MM)
  Andrea Ligabue,           University of Modena,         Italy       (CTOCD, AOSOPPA)
  Nanna H. List             Univ. of Southern Denmark,    Denmark     (Polarizable embedding model)
  Ola B. Lutnaes,           University of Oslo,           Norway      (DFT Hessian)
  Juan I. Melo,             University of Buenos Aires,   Argentina   (LRESC, Relativistic Effects on NMR Shieldings)
  Kurt V. Mikkelsen,        University of Copenhagen,     Denmark     (MC-SCRF and QM/MM)
  Rolf H. Myhre,            NTNU,                         Norway      (Cholesky, subsystems and ECC2)
  Christian Neiss,          Univ. Erlangen-Nuernberg,     Germany     (CCSD(R12))
  Christian B. Nielsen,     University of Copenhagen,     Denmark     (QM/MM)
  Patrick Norman,           Linkoeping University,        Sweden      (Cubic response and complex frequency response in RESPONS)
  Jeppe Olsen,              Aarhus University,            Denmark     (SIRIUS CI/density modules)
  Jogvan Magnus H. Olsen,   Univ. of Southern Denmark,    Denmark     (Polarizable embedding model, QM/MM)
  Anders Osted,             Copenhagen University,        Denmark     (QM/MM)
  Martin J. Packer,         University of Sheffield,      UK          (SOPPA)
  Filip Pawlowski,          Kazimierz Wielki University,  Poland      (CC3)
  Morten N. Pedersen,       Univ. of Southern Denmark,    Denmark     (Polarizable embedding model)
  Thomas B. Pedersen,       University of Oslo,           Norway      (Cholesky decomposition)
  Patricio F. Provasi,      University of Northeastern,   Argentina   (Analysis of coupling constants in localized orbitals)
  Zilvinas Rinkevicius,     KTH Stockholm,                Sweden      (open-shell DFT, ESR)
  Elias Rudberg,            KTH Stockholm,                Sweden      (DFT grid and basis info)
  Torgeir A. Ruden,         University of Oslo,           Norway      (Numerical derivatives in ABACUS)
  Kenneth Ruud,             UiT The Arctic U. of Norway,  Norway      (DALTON; ABACUS magnetic properties and much more)
  Pawel Salek,              KTH Stockholm,                Sweden      (DALTON; DFT code)
  Claire C. M. Samson       University of Karlsruhe       Germany     (Boys localization, r12 integrals in ERI)
  Alfredo Sanchez de Meras, University of Valencia,       Spain       (CC module, Cholesky decomposition)
  Trond Saue,               Paul Sabatier University,     France      (direct Fock matrix construction)
  Stephan P. A. Sauer,      University of Copenhagen,     Denmark     (SOPPA(CCSD), SOPPA prop., AOSOPPA, vibrational g-factors)
  Bernd Schimmelpfennig,    Forschungszentrum Karlsruhe,  Germany     (AMFI module)
  Kristian Sneskov,         Aarhus University,            Denmark     (Polarizable embedding model, QM/MM)
  Arnfinn H. Steindal,      UiT The Arctic U. of Norway,  Norway      (parallel QM/MM, Polarizable embedding model)
  Casper Steinmann,         Univ. of Southern Denmark,    Denmark     (QFIT, Polarizable embedding model)
  K. O. Sylvester-Hvid,     University of Copenhagen,     Denmark     (MC-SCRF)
  Peter R. Taylor,          VLSCI/Univ. of Melbourne,     Australia   (Symmetry handling ABACUS, integral transformation)
  Andrew M. Teale,          University of Nottingham,     England     (DFT-AC, DFT-D)
  David P. Tew,             University of Bristol,        England     (CCSD(R12))
  Olav Vahtras,             KTH Stockholm,                Sweden      (triplet response, spin-orbit, ESR, TDDFT, open-shell DFT)
  David J. Wilson,          La Trobe University,          Australia   (DFT Hessian and DFT magnetizabilities)
  Hans Agren,               KTH Stockholm,                Sweden      (SIRIUS module, RESPONS, MC-SCRF solvation model)
 --------------------------------------------------------------------------------

     Date and time (Linux)  : Wed Mar  9 13:53:39 2016
     Host name              : olav-ThinkPad-W540                      

 * Work memory size             :    64000000 =  488.28 megabytes.

 * Directories for basis set searches:
   1) /home/olav/dev/py/daltools/test/test_abslr.d
   2) /home/olav/dev/dalton/build/absvecs/basis


Compilation information
-----------------------

 Who compiled             | olav
 Host                     | olav-ThinkPad-W540
 System                   | Linux-3.13.0-48-generic
 CMake generator          | Unix Makefiles
 Processor                | x86_64
 64-bit integers          | OFF
 MPI                      | ON
 Fortran compiler         | /usr/bin/mpif90
 Fortran compiler version | GNU Fortran (Ubuntu 5.2.1-22ubuntu2) 5.2.1 2015101
                          | 0
 C compiler               | /usr/bin/mpicc
 C compiler version       | gcc (Ubuntu 5.2.1-22ubuntu2) 5.2.1 20151010
 C++ compiler             | /usr/bin/mpicxx
 C++ compiler version     | unknown
 BLAS                     | /usr/lib/libblas.so
 LAPACK                   | /usr/lib/liblapack.so
 Static linking           | OFF
 Last Git revision        | c926afb6f00eb7b8ba0248a9ec865f2b6b394990
 Git branch               | absvecs
 Configuration time       | 2016-03-04 16:22:20.015823

 * Sequential calculation.


   Content of the .dal input file
 ----------------------------------

**DALTON INPUT                                    
.RUN RESPONSE                                     
.DIRECT                                           
**INTEGRALS                                       
.DIPLEN                                           
**WAVE FUNCTION                                   
.HF                                               
**RESPONSE                                        
*ABSORP                                           
.ALPHA                                            
.DAMPING                                          
 0.004556                                         
.FREQ I                                           
0.4425 0.49 0.0025                                
.MAXRM                                            
 800                                              
.THCLR                                            
 1.0D-5                                           
**END OF DALTON INPUT                             


   Content of the .mol file
 ----------------------------

BASIS                                                                          
STO-3G                                                                         
methan                                                                         
----------                                                                     
Atomtypes=2 Generators=0  Angstrom                                             
Charge=6.0 Atoms=1                                                             
C   -4.37078673  2.07865165  0.00000000                                        
Charge=1.0 Atoms=4                                                             
H   -4.01413230  1.06984165  0.00000000                                        
H   -4.01411389  2.58304984  0.87365150                                        
H   -4.01411389  2.58304984  -0.87365150                                       
H   -5.44078673  2.07866484  0.00000000                                        
FINISH                                                                         


       *******************************************************************
       *********** Output from DALTON general input processing ***********
       *******************************************************************

 --------------------------------------------------------------------------------
   Overall default print level:    0
   Print level for DALTON.STAT:    1

    AO-direct calculation (in sections where implemented)
    HERMIT 1- and 2-electron integral sections will be executed
    "Old" integral transformation used (limited to max 255 basis functions)
    Wave function sections will be executed (SIRIUS module)
    Dynamic molecular response properties section will be executed (RESPONSE module)
 --------------------------------------------------------------------------------


   ****************************************************************************
   *************** Output of molecule and basis set information ***************
   ****************************************************************************


    The two title cards from your ".mol" input:
    ------------------------------------------------------------------------
 1: methan                                                                  
 2: ----------                                                              
    ------------------------------------------------------------------------

  Coordinates are entered in Angstrom and converted to atomic units.
          - Conversion factor : 1 bohr = 0.52917721 A

  Atomic type no.    1
  --------------------
  Nuclear charge:   6.00000
  Number of symmetry independent centers:    1
  Number of basis sets to read;    2
  Basis set file used for this atomic type with Z =   6 :
     "/home/olav/dev/dalton/build/absvecs/basis/STO-3G"

  Atomic type no.    2
  --------------------
  Nuclear charge:   1.00000
  Number of symmetry independent centers:    4
  Number of basis sets to read;    2
  Basis set file used for this atomic type with Z =   1 :
     "/home/olav/dev/dalton/build/absvecs/basis/STO-3G"


                         SYMGRP: Point group information
                         -------------------------------

@    Point group: C1 


                                 Isotopic Masses
                                 ---------------

                           C          12.000000
                           H           1.007825
                           H           1.007825
                           H           1.007825
                           H           1.007825

                       Total mass:    16.031300 amu
                       Natural abundance:  98.841 %

 Center-of-mass coordinates (a.u.):   -8.259590    3.928082    0.000000


  Atoms and basis sets
  --------------------

  Number of atom types :    2
  Total number of atoms:    5

  Basis set used is "STO-3G" from the basis set library.

  label    atoms   charge   prim   cont     basis
  ----------------------------------------------------------------------
  C           1    6.0000    15     5      [6s3p|2s1p]                                        
  H           4    1.0000     3     1      [3s|1s]                                            
  ----------------------------------------------------------------------
  total:      5   10.0000    27     9
  ----------------------------------------------------------------------

  Threshold for neglecting AO integrals:  1.00D-12


  Cartesian Coordinates (a.u.)
  ----------------------------

  Total number of coordinates:   15
  C       :     1  x  -8.2595898705    2  y   3.9280823278    3  z   0.0000000000
  H       :     4  x  -7.5856106765    5  y   2.0217077156    6  z   0.0000000000
  H       :     7  x  -7.5855758866    8  y   4.8812567648    9  z   1.6509620637
  H       :    10  x  -7.5855758866   11  y   4.8812567648   12  z  -1.6509620637
  H       :    13  x -10.2815968242   14  y   3.9281072533   15  z   0.0000000000


   Interatomic separations (in Angstrom):
   --------------------------------------

            C           H           H           H           H     
            ------      ------      ------      ------      ------
 C     :    0.000000
 H     :    1.070000    0.000000
 H     :    1.070000    1.747302    0.000000
 H     :    1.070000    1.747302    1.747303    0.000000
 H     :    1.070000    1.747303    1.747303    1.747303    0.000000


  Max    interatomic separation is    1.7473 Angstrom (    3.3019 Bohr)
  between atoms    4 and    3, "H     " and "H     ".

  Min HX interatomic separation is    1.0700 Angstrom (    2.0220 Bohr)


  Bond distances (Angstrom):
  --------------------------

                  atom 1     atom 2       distance
                  ------     ------       --------
  bond distance:  H          C            1.070000
  bond distance:  H          C            1.070000
  bond distance:  H          C            1.070000
  bond distance:  H          C            1.070000


  Bond angles (degrees):
  ----------------------

                  atom 1     atom 2     atom 3         angle
                  ------     ------     ------         -----
  bond angle:     H          C          H            109.471
  bond angle:     H          C          H            109.471
  bond angle:     H          C          H            109.471
  bond angle:     H          C          H            109.471
  bond angle:     H          C          H            109.471
  bond angle:     H          C          H            109.471




 Principal moments of inertia (u*A**2) and principal axes
 --------------------------------------------------------

   IA       3.076956          0.000000    0.000000    1.000000
   IB       3.076957          0.914814   -0.403876    0.000000
   IC       3.076958          0.403876    0.914814    0.000000


 Rotational constants
 --------------------

               A                   B                   C

         164246.4015         164246.3854         164246.3273 MHz
            5.478670            5.478670            5.478668 cm-1


@  Nuclear repulsion energy :   13.686518047446 Hartree


                     .---------------------------------------.
                     | Starting in Integral Section (HERMIT) |
                     `---------------------------------------'



 ***************************************************************************************
 ****************** Output from **INTEGRALS input processing (HERMIT) ******************
 ***************************************************************************************



    *************************************************************************
    ****************** Output from HERMIT input processing ******************
    *************************************************************************


 Default print level:        1

 * Nuclear model: Point charge

 Calculation of one-electron Hamiltonian integrals.

 The following one-electron property integrals are calculated as requested:
          - overlap integrals
          - dipole length integrals

 Center of mass  (bohr):     -8.259589857388      3.928082276682      0.000000000000
 Operator center (bohr):      0.000000000000      0.000000000000      0.000000000000
 Gauge origin    (bohr):      0.000000000000      0.000000000000      0.000000000000
 Dipole origin   (bohr):      0.000000000000      0.000000000000      0.000000000000


     ************************************************************************
     ************************** Output from HERINT **************************
     ************************************************************************

  Total CPU  time used in HERMIT:   0.01 seconds
  Total wall time used in HERMIT:   0.01 seconds


                        .----------------------------------.
                        | End of Integral Section (HERMIT) |
                        `----------------------------------'



                   .--------------------------------------------.
                   | Starting in Wave Function Section (SIRIUS) |
                   `--------------------------------------------'


 *** Output from Huckel module :

     Using EWMO model:          T
     Using EHT  model:          F
     Number of Huckel orbitals each symmetry:    9

 EWMO - Energy Weighted Maximum Overlap - is a Huckel type method,
        which normally is better than Extended Huckel Theory.
 Reference: Linderberg and Ohrn, Propagators in Quantum Chemistry (Wiley, 1973)

 Huckel EWMO eigenvalues for symmetry :  1
          -11.351867      -1.467870      -0.659758      -0.659758      -0.659758
           -0.119406      -0.117594      -0.117594      -0.117594

 **********************************************************************
 *SIRIUS* a direct, restricted step, second order MCSCF program       *
 **********************************************************************

 
     Date and time (Linux)  : Wed Mar  9 13:53:39 2016
     Host name              : olav-ThinkPad-W540                      

 Title lines from ".mol" input file:
     methan                                                                  
     ----------                                                              

 Print level on unit LUPRI =   2 is   0
 Print level on unit LUW4  =   2 is   5

@    Restricted, closed shell Hartree-Fock calculation.

@    Time-dependent Hartree-Fock calculation (random phase approximation).
 Fock matrices are calculated directly without use of integrals on disk.

 Initial molecular orbitals are obtained according to
 ".MOSTART EWMO  " input option

     Wave function specification
     ============================
@    Wave function type        --- HF ---
@    Number of closed shell electrons          10
@    Number of electrons in active shells       0
@    Total charge of the molecule               0

@    Spin multiplicity and 2 M_S                1         0
@    Total number of symmetries                 1 (point group: C1 )
@    Reference state symmetry                   1 (irrep name : A  )

     Orbital specifications
     ======================
@    Abelian symmetry species          All |    1
@                                          |  A  
                                       --- |  ---
@    Occupied SCF orbitals               5 |    5
@    Secondary orbitals                  4 |    4
@    Total number of orbitals            9 |    9
@    Number of basis functions           9 |    9

     Optimization information
     ========================
@    Number of configurations                 1
@    Number of orbital rotations             20
     ------------------------------------------
@    Total number of variables               21

     Maximum number of Fock   iterations      0
     Maximum number of DIIS   iterations     60
     Maximum number of QC-SCF iterations     60
     Threshold for SCF convergence     1.00D-05


 ***********************************************
 ***** DIIS acceleration of SCF iterations *****
 ***********************************************

 C1-DIIS algorithm; max error vectors =    8

 Iter      Total energy        Error norm    Delta(E)  DIIS dim.
 -----------------------------------------------------------------------------
   1  Screening settings (-IFTHRS, JTDIIS, DIFDEN, times)   -5    1    T  6.19D-03  6.00D-03
@  1    -39.6753764163        8.50301D-01   -3.97D+01    1
      Virial theorem: -V/T =      2.015089
@      MULPOP C       0.39; H      -0.10; H      -0.10; H      -0.10; H      -0.10; 
   1  Level shift: doubly occupied orbital energies shifted by -2.00D-01
 -----------------------------------------------------------------------------
   2  Screening settings (-IFTHRS, JTDIIS, DIFDEN, times)   -5    2    T  7.27D-03  5.00D-03
@  2    -39.7255949212        9.31064D-02   -5.02D-02    2
      Virial theorem: -V/T =      2.005748
@      MULPOP C      -0.28; H       0.07; H       0.07; H       0.07; H       0.07; 
   2  Level shift: doubly occupied orbital energies shifted by -5.00D-02
 -----------------------------------------------------------------------------
   3  Screening settings (-IFTHRS, JTDIIS, DIFDEN, times)   -9    3    F  4.42D-03  5.00D-03
@  3    -39.7262363191        2.10266D-02   -6.41D-04    3
      Virial theorem: -V/T =      2.005859
@      MULPOP C      -0.27; H       0.07; H       0.07; H       0.07; H       0.07; 
   3  Level shift: doubly occupied orbital energies shifted by -1.25D-02
 -----------------------------------------------------------------------------
   4  Screening settings (-IFTHRS, JTDIIS, DIFDEN, times)   -9    4    T  3.96D-03  4.00D-03
@  4    -39.7262777880        2.55402D-03   -4.15D-05    4
      Virial theorem: -V/T =      2.005581
@      MULPOP C      -0.28; H       0.07; H       0.07; H       0.07; H       0.07; 
 -----------------------------------------------------------------------------
   5  Screening settings (-IFTHRS, JTDIIS, DIFDEN, times)   -9    5    T  3.92D-03  4.00D-03
@  5    -39.7262784215        6.82003D-06   -6.34D-07    5

@ *** DIIS converged in   5 iterations !
@     Converged SCF energy, gradient:    -39.726278421535    6.82D-06
    - total time used in SIRFCK :              0.00 seconds


 *** SCF orbital energy analysis ***

 Number of electrons :   10
 Orbital occupations :    5

 Sym       Hartree-Fock orbital energies

1 A     -11.02863704    -0.91890753    -0.52569572    -0.52569573    -0.52569562
          0.73091723     0.73091744     0.73091748     0.78108227

    E(LUMO) :     0.73091723 au (symmetry 1)
  - E(HOMO) :    -0.52569562 au (symmetry 1)
  ------------------------------------------
    gap     :     1.25661284 au

 --- Writing SIRIFC interface file

 CPU and wall time for SCF :       0.027       0.027


                       .-----------------------------------.
                       | --- Final results from SIRIUS --- |
                       `-----------------------------------'


@    Spin multiplicity:           1
@    Spatial symmetry:            1 ( irrep  A   in C1  )
@    Total charge of molecule:    0

@    Final HF energy:             -39.726278421535                 
@    Nuclear repulsion:            13.686518047446
@    Electronic energy:           -53.412796468981

@    Final gradient norm:           0.000006820026

 
     Date and time (Linux)  : Wed Mar  9 13:53:39 2016
     Host name              : olav-ThinkPad-W540                      

File label for MO orbitals:   9Mar16   FOCKDIIS

 (Only coefficients > 0.0100 are printed.)

 Molecular orbitals for symmetry species 1  (A  )
 ------------------------------------------------

    Orbital         1        2        3        4        5        6        7
   1 C   :1s     0.9919  -0.2220  -0.0000   0.0000  -0.0000   0.0000  -0.0000
   2 C   :1s     0.0390   0.6240   0.0000  -0.0000   0.0000  -0.0000   0.0000
   3 C   :2px   -0.0000  -0.0000   0.5248   0.0000  -0.2316   0.4500   1.0208
   4 C   :2py    0.0000   0.0000  -0.2316  -0.0000  -0.5248   1.0208  -0.4500
   5 C   :2pz   -0.0000  -0.0000   0.0000  -0.5736  -0.0000  -0.0000  -0.0000
   6 H   :1s    -0.0072   0.1802   0.3556   0.0000   0.3776   0.7866  -0.7403
   7 H   :1s    -0.0072   0.1802   0.0595  -0.4235  -0.2935  -0.6112  -0.1241
   8 H   :1s    -0.0072   0.1802   0.0595   0.4235  -0.2935  -0.6112  -0.1241
   9 H   :1s    -0.0072   0.1802  -0.4745  -0.0000   0.2094   0.4357   0.9884

    Orbital         8        9
   1 C   :1s    -0.0000  -0.2535
   2 C   :1s     0.0000   1.6678
   5 C   :2pz    1.1156  -0.0000
   6 H   :1s    -0.0000  -0.6768
   7 H   :1s    -0.8819  -0.6768
   8 H   :1s     0.8819  -0.6768
   9 H   :1s     0.0000  -0.6768

  Total CPU  time used in SIRIUS :   0.03 seconds
  Total wall time used in SIRIUS :   0.03 seconds

 
     Date and time (Linux)  : Wed Mar  9 13:53:39 2016
     Host name              : olav-ThinkPad-W540                      


                     .---------------------------------------.
                     | End of Wave Function Section (SIRIUS) |
                     `---------------------------------------'



                 .------------------------------------------------.
                 | Starting in Dynamic Property Section (RESPONS) |
                 `------------------------------------------------'


 ------------------------------------------------------------------------------
  RESPONSE  -  an MCSCF, MC-srDFT, DFT, and SOPPA response property program
 ------------------------------------------------------------------------------


 -------- OUTPUT FROM RESPONSE INPUT PROCESSING --------




                  +----------------------------------------------+
                  ! Variable settings for absorption calculation !
                  +----------------------------------------------+

 Linear polarizability calculation requested:                         ABSLRS_ALPHA =   T
 Absorption calc over frequency interval  :                           ABSLRS_INTERVAL =   T
 Number of frequencies              : ABS_NFREQ_INTERVAL=   0
 Start: 0.44250Stop: 0.49000   Step: 0.00250
 Damping parameter (a.u. and cm-1)        : DAMPING      = 0.004556   999.9
 Threshold of convergence in LR solver    : THCLR        = 1.0D-05
 Maximum iterations in complex LR solver  : MAXIT        = 150
 Maximum size of reduced space            : MAXRM        = 800
 Print level in absorption modules        : PRINT        =   0


   SCF energy         :      -39.726278421534552
 -- inactive part     :      -53.412796468980765
 -- nuclear repulsion :       13.686518047446212


                     ***************************************
                     *** RHF response calculation (TDHF) ***
                     ***************************************



                       +-----------------------------------+
                       ! Solving Linear Response Equations !
                       +-----------------------------------+



 Perturbation symmetry.     KSYMOP:       1
 Perturbation spin symmetry.TRPLET:       F
 Orbital variables.         KZWOPT:      20
 Configuration variables.   KZCONF:       0
 Total number of variables. KZVAR :      20

 ABSLRS -- Solving linear response equations( E[2] - {w+iW}*S[2] ) N = B[1]  
 ABSLRS -- for operator XDIPLEN  of symmetry 1 at frequencies:
 ABSLRS --  0.44250000  0.44500000  0.44750000  0.45000000
             0.45250000  0.45500000  0.45750000  0.46000000
             0.46250000  0.46500000  0.46750000  0.47000000
             0.47250000  0.47500000  0.47750000  0.48000000
             0.48250000  0.48500000  0.48750000  0.49000000

ITER, IVEC:   1   1  XDIPLEN    0.4425   RESID, RESID/X:  0.4856060D-01  0.1021182D+00
ITER, IVEC:   1   2  XDIPLEN    0.4450   RESID, RESID/X:  0.4881585D-01  0.1024030D+00
ITER, IVEC:   1   3  XDIPLEN    0.4475   RESID, RESID/X:  0.4907403D-01  0.1026901D+00
ITER, IVEC:   1   4  XDIPLEN    0.4500   RESID, RESID/X:  0.4933520D-01  0.1029793D+00
ITER, IVEC:   1   5  XDIPLEN    0.4525   RESID, RESID/X:  0.4959938D-01  0.1032708D+00
ITER, IVEC:   1   6  XDIPLEN    0.4550   RESID, RESID/X:  0.4986662D-01  0.1035646D+00
ITER, IVEC:   1   7  XDIPLEN    0.4575   RESID, RESID/X:  0.5013698D-01  0.1038606D+00
ITER, IVEC:   1   8  XDIPLEN    0.4600   RESID, RESID/X:  0.5041049D-01  0.1041590D+00
ITER, IVEC:   1   9  XDIPLEN    0.4625   RESID, RESID/X:  0.5068721D-01  0.1044597D+00
ITER, IVEC:   1  10  XDIPLEN    0.4650   RESID, RESID/X:  0.5096718D-01  0.1047627D+00
ITER, IVEC:   1  11  XDIPLEN    0.4675   RESID, RESID/X:  0.5125045D-01  0.1050682D+00
ITER, IVEC:   1  12  XDIPLEN    0.4700   RESID, RESID/X:  0.5153708D-01  0.1053760D+00
ITER, IVEC:   1  13  XDIPLEN    0.4725   RESID, RESID/X:  0.5182711D-01  0.1056863D+00
ITER, IVEC:   1  14  XDIPLEN    0.4750   RESID, RESID/X:  0.5212061D-01  0.1059991D+00
ITER, IVEC:   1  15  XDIPLEN    0.4775   RESID, RESID/X:  0.5241761D-01  0.1063143D+00
ITER, IVEC:   1  16  XDIPLEN    0.4800   RESID, RESID/X:  0.5271819D-01  0.1066321D+00
ITER, IVEC:   1  17  XDIPLEN    0.4825   RESID, RESID/X:  0.5302240D-01  0.1069524D+00
ITER, IVEC:   1  18  XDIPLEN    0.4850   RESID, RESID/X:  0.5333029D-01  0.1072753D+00
ITER, IVEC:   1  19  XDIPLEN    0.4875   RESID, RESID/X:  0.5364193D-01  0.1076008D+00
ITER, IVEC:   1  20  XDIPLEN    0.4900   RESID, RESID/X:  0.5395738D-01  0.1079289D+00
ITER, IVEC:   2   1  XDIPLEN    0.4425   RESID, RESID/X:  0.7276666D-07  0.1529641D-06
ITER, IVEC:   2   2  XDIPLEN    0.4450   RESID, RESID/X:  0.7333815D-07  0.1537867D-06
ITER, IVEC:   2   3  XDIPLEN    0.4475   RESID, RESID/X:  0.7391993D-07  0.1546229D-06
ITER, IVEC:   2   4  XDIPLEN    0.4500   RESID, RESID/X:  0.7451222D-07  0.1554731D-06
ITER, IVEC:   2   5  XDIPLEN    0.4525   RESID, RESID/X:  0.7511525D-07  0.1563374D-06
ITER, IVEC:   2   6  XDIPLEN    0.4550   RESID, RESID/X:  0.7572926D-07  0.1572162D-06
ITER, IVEC:   2   7  XDIPLEN    0.4575   RESID, RESID/X:  0.7635450D-07  0.1581097D-06
ITER, IVEC:   2   8  XDIPLEN    0.4600   RESID, RESID/X:  0.7699122D-07  0.1590183D-06
ITER, IVEC:   2   9  XDIPLEN    0.4625   RESID, RESID/X:  0.7763966D-07  0.1599421D-06
ITER, IVEC:   2  10  XDIPLEN    0.4650   RESID, RESID/X:  0.7830011D-07  0.1608816D-06
ITER, IVEC:   2  11  XDIPLEN    0.4675   RESID, RESID/X:  0.7897282D-07  0.1618370D-06
ITER, IVEC:   2  12  XDIPLEN    0.4700   RESID, RESID/X:  0.7965809D-07  0.1628086D-06
ITER, IVEC:   2  13  XDIPLEN    0.4725   RESID, RESID/X:  0.8035618D-07  0.1637967D-06
ITER, IVEC:   2  14  XDIPLEN    0.4750   RESID, RESID/X:  0.8106741D-07  0.1648018D-06
ITER, IVEC:   2  15  XDIPLEN    0.4775   RESID, RESID/X:  0.8179207D-07  0.1658240D-06
ITER, IVEC:   2  16  XDIPLEN    0.4800   RESID, RESID/X:  0.8253048D-07  0.1668638D-06
ITER, IVEC:   2  17  XDIPLEN    0.4825   RESID, RESID/X:  0.8328294D-07  0.1679215D-06
ITER, IVEC:   2  18  XDIPLEN    0.4850   RESID, RESID/X:  0.8404980D-07  0.1689975D-06
ITER, IVEC:   2  19  XDIPLEN    0.4875   RESID, RESID/X:  0.8483140D-07  0.1700921D-06
ITER, IVEC:   2  20  XDIPLEN    0.4900   RESID, RESID/X:  0.8562807D-07  0.1712057D-06

 *** ABSCTL: REQUESTED  20 SOLUTION VECTORS CONVERGED IN RED SPACES OF   5   5

 ABSLRS -- Solving linear response equations( E[2] - {w+iW}*S[2] ) N = B[1]  
 ABSLRS -- for operator YDIPLEN  of symmetry 1 at frequencies:
 ABSLRS --  0.44250000  0.44500000  0.44750000  0.45000000
             0.45250000  0.45500000  0.45750000  0.46000000
             0.46250000  0.46500000  0.46750000  0.47000000
             0.47250000  0.47500000  0.47750000  0.48000000
             0.48250000  0.48500000  0.48750000  0.49000000

 Use ABS_READIN_RED            5           5
ITER, IVEC:   1   1  YDIPLEN    0.4425   RESID, RESID/X:  0.8463468D+00  0.2688407D+01
ITER, IVEC:   1   2  YDIPLEN    0.4450   RESID, RESID/X:  0.8465743D+00  0.2687370D+01
ITER, IVEC:   1   3  YDIPLEN    0.4475   RESID, RESID/X:  0.8468047D+00  0.2686332D+01
ITER, IVEC:   1   4  YDIPLEN    0.4500   RESID, RESID/X:  0.8470379D+00  0.2685292D+01
ITER, IVEC:   1   5  YDIPLEN    0.4525   RESID, RESID/X:  0.8472739D+00  0.2684251D+01
ITER, IVEC:   1   6  YDIPLEN    0.4550   RESID, RESID/X:  0.8475130D+00  0.2683209D+01
ITER, IVEC:   1   7  YDIPLEN    0.4575   RESID, RESID/X:  0.8477550D+00  0.2682166D+01
ITER, IVEC:   1   8  YDIPLEN    0.4600   RESID, RESID/X:  0.8479999D+00  0.2681122D+01
ITER, IVEC:   1   9  YDIPLEN    0.4625   RESID, RESID/X:  0.8482480D+00  0.2680077D+01
ITER, IVEC:   1  10  YDIPLEN    0.4650   RESID, RESID/X:  0.8484990D+00  0.2679031D+01
ITER, IVEC:   1  11  YDIPLEN    0.4675   RESID, RESID/X:  0.8487532D+00  0.2677984D+01
ITER, IVEC:   1  12  YDIPLEN    0.4700   RESID, RESID/X:  0.8490105D+00  0.2676937D+01
ITER, IVEC:   1  13  YDIPLEN    0.4725   RESID, RESID/X:  0.8492710D+00  0.2675889D+01
ITER, IVEC:   1  14  YDIPLEN    0.4750   RESID, RESID/X:  0.8495347D+00  0.2674841D+01
ITER, IVEC:   1  15  YDIPLEN    0.4775   RESID, RESID/X:  0.8498017D+00  0.2673792D+01
ITER, IVEC:   1  16  YDIPLEN    0.4800   RESID, RESID/X:  0.8500719D+00  0.2672743D+01
ITER, IVEC:   1  17  YDIPLEN    0.4825   RESID, RESID/X:  0.8503455D+00  0.2671694D+01
ITER, IVEC:   1  18  YDIPLEN    0.4850   RESID, RESID/X:  0.8506224D+00  0.2670645D+01
ITER, IVEC:   1  19  YDIPLEN    0.4875   RESID, RESID/X:  0.8509027D+00  0.2669596D+01
ITER, IVEC:   1  20  YDIPLEN    0.4900   RESID, RESID/X:  0.8511865D+00  0.2668547D+01
ITER, IVEC:   2   1  YDIPLEN    0.4425   RESID, RESID/X:  0.1247867D+00  0.2628471D+00
ITER, IVEC:   2   2  YDIPLEN    0.4450   RESID, RESID/X:  0.1253396D+00  0.2633654D+00
ITER, IVEC:   2   3  YDIPLEN    0.4475   RESID, RESID/X:  0.1259002D+00  0.2638906D+00
ITER, IVEC:   2   4  YDIPLEN    0.4500   RESID, RESID/X:  0.1264686D+00  0.2644229D+00
ITER, IVEC:   2   5  YDIPLEN    0.4525   RESID, RESID/X:  0.1270448D+00  0.2649624D+00
ITER, IVEC:   2   6  YDIPLEN    0.4550   RESID, RESID/X:  0.1276290D+00  0.2655090D+00
ITER, IVEC:   2   7  YDIPLEN    0.4575   RESID, RESID/X:  0.1282214D+00  0.2660630D+00
ITER, IVEC:   2   8  YDIPLEN    0.4600   RESID, RESID/X:  0.1288220D+00  0.2666244D+00
ITER, IVEC:   2   9  YDIPLEN    0.4625   RESID, RESID/X:  0.1294310D+00  0.2671932D+00
ITER, IVEC:   2  10  YDIPLEN    0.4650   RESID, RESID/X:  0.1300486D+00  0.2677697D+00
ITER, IVEC:   2  11  YDIPLEN    0.4675   RESID, RESID/X:  0.1306749D+00  0.2683538D+00
ITER, IVEC:   2  12  YDIPLEN    0.4700   RESID, RESID/X:  0.1313099D+00  0.2689457D+00
ITER, IVEC:   2  13  YDIPLEN    0.4725   RESID, RESID/X:  0.1319540D+00  0.2695455D+00
ITER, IVEC:   2  14  YDIPLEN    0.4750   RESID, RESID/X:  0.1326071D+00  0.2701533D+00
ITER, IVEC:   2  15  YDIPLEN    0.4775   RESID, RESID/X:  0.1332696D+00  0.2707691D+00
ITER, IVEC:   2  16  YDIPLEN    0.4800   RESID, RESID/X:  0.1339414D+00  0.2713931D+00
ITER, IVEC:   2  17  YDIPLEN    0.4825   RESID, RESID/X:  0.1346228D+00  0.2720253D+00
ITER, IVEC:   2  18  YDIPLEN    0.4850   RESID, RESID/X:  0.1353140D+00  0.2726659D+00
ITER, IVEC:   2  19  YDIPLEN    0.4875   RESID, RESID/X:  0.1360151D+00  0.2733150D+00
ITER, IVEC:   2  20  YDIPLEN    0.4900   RESID, RESID/X:  0.1367263D+00  0.2739727D+00
ITER, IVEC:   3   1  YDIPLEN    0.4425   RESID, RESID/X:  0.6855766D-02  0.1441212D-01
ITER, IVEC:   3   2  YDIPLEN    0.4450   RESID, RESID/X:  0.6887554D-02  0.1444338D-01
ITER, IVEC:   3   3  YDIPLEN    0.4475   RESID, RESID/X:  0.6919756D-02  0.1447498D-01
ITER, IVEC:   3   4  YDIPLEN    0.4500   RESID, RESID/X:  0.6952376D-02  0.1450695D-01
ITER, IVEC:   3   5  YDIPLEN    0.4525   RESID, RESID/X:  0.6985421D-02  0.1453927D-01
ITER, IVEC:   3   6  YDIPLEN    0.4550   RESID, RESID/X:  0.7018897D-02  0.1457195D-01
ITER, IVEC:   3   7  YDIPLEN    0.4575   RESID, RESID/X:  0.7052812D-02  0.1460500D-01
ITER, IVEC:   3   8  YDIPLEN    0.4600   RESID, RESID/X:  0.7087170D-02  0.1463841D-01
ITER, IVEC:   3   9  YDIPLEN    0.4625   RESID, RESID/X:  0.7121979D-02  0.1467220D-01
ITER, IVEC:   3  10  YDIPLEN    0.4650   RESID, RESID/X:  0.7157246D-02  0.1470637D-01
ITER, IVEC:   3  11  YDIPLEN    0.4675   RESID, RESID/X:  0.7192977D-02  0.1474091D-01
ITER, IVEC:   3  12  YDIPLEN    0.4700   RESID, RESID/X:  0.7229180D-02  0.1477584D-01
ITER, IVEC:   3  13  YDIPLEN    0.4725   RESID, RESID/X:  0.7265862D-02  0.1481115D-01
ITER, IVEC:   3  14  YDIPLEN    0.4750   RESID, RESID/X:  0.7303030D-02  0.1484686D-01
ITER, IVEC:   3  15  YDIPLEN    0.4775   RESID, RESID/X:  0.7340692D-02  0.1488295D-01
ITER, IVEC:   3  16  YDIPLEN    0.4800   RESID, RESID/X:  0.7378855D-02  0.1491945D-01
ITER, IVEC:   3  17  YDIPLEN    0.4825   RESID, RESID/X:  0.7417527D-02  0.1495635D-01
ITER, IVEC:   3  18  YDIPLEN    0.4850   RESID, RESID/X:  0.7456717D-02  0.1499365D-01
ITER, IVEC:   3  19  YDIPLEN    0.4875   RESID, RESID/X:  0.7496432D-02  0.1503137D-01
ITER, IVEC:   3  20  YDIPLEN    0.4900   RESID, RESID/X:  0.7536682D-02  0.1506950D-01
ITER, IVEC:   4   1  YDIPLEN    0.4425   RESID, RESID/X:  0.7035337D-05  0.1478910D-04
ITER, IVEC:   4   2  YDIPLEN    0.4450   RESID, RESID/X:  0.7131838D-05  0.1495513D-04
ITER, IVEC:   4   3  YDIPLEN    0.4475   RESID, RESID/X:  0.7230177D-05  0.1512381D-04
ITER, IVEC:   4   4  YDIPLEN    0.4500   RESID, RESID/X:  0.7330394D-05  0.1529519D-04
ITER, IVEC:   4   5  YDIPLEN    0.4525   RESID, RESID/X:  0.7432535D-05  0.1546933D-04
ITER, IVEC:   4   6  YDIPLEN    0.4550   RESID, RESID/X:  0.7536644D-05  0.1564629D-04
ITER, IVEC:   4   7  YDIPLEN    0.4575   RESID, RESID/X:  0.7642769D-05  0.1582612D-04
ITER, IVEC:   4   8  YDIPLEN    0.4600   RESID, RESID/X:  0.7750957D-05  0.1600888D-04
ITER, IVEC:   4   9  YDIPLEN    0.4625   RESID, RESID/X:  0.7861257D-05  0.1619463D-04
ITER, IVEC:   4  10  YDIPLEN    0.4650   RESID, RESID/X:  0.7973720D-05  0.1638343D-04
ITER, IVEC:   4  11  YDIPLEN    0.4675   RESID, RESID/X:  0.8088398D-05  0.1657534D-04
ITER, IVEC:   4  12  YDIPLEN    0.4700   RESID, RESID/X:  0.8205345D-05  0.1677043D-04
ITER, IVEC:   4  13  YDIPLEN    0.4725   RESID, RESID/X:  0.8324617D-05  0.1696876D-04
ITER, IVEC:   4  14  YDIPLEN    0.4750   RESID, RESID/X:  0.8446270D-05  0.1717040D-04
ITER, IVEC:   4  15  YDIPLEN    0.4775   RESID, RESID/X:  0.8570363D-05  0.1737542D-04
ITER, IVEC:   4  16  YDIPLEN    0.4800   RESID, RESID/X:  0.8696956D-05  0.1758389D-04
ITER, IVEC:   4  17  YDIPLEN    0.4825   RESID, RESID/X:  0.8826112D-05  0.1779588D-04
ITER, IVEC:   4  18  YDIPLEN    0.4850   RESID, RESID/X:  0.8957895D-05  0.1801148D-04
ITER, IVEC:   4  19  YDIPLEN    0.4875   RESID, RESID/X:  0.9092370D-05  0.1823075D-04
ITER, IVEC:   4  20  YDIPLEN    0.4900   RESID, RESID/X:  0.9229607D-05  0.1845378D-04

 *** ABSCTL: REQUESTED  20 SOLUTION VECTORS CONVERGED IN RED SPACES OF  14  13

 ABSLRS -- Solving linear response equations( E[2] - {w+iW}*S[2] ) N = B[1]  
 ABSLRS -- for operator ZDIPLEN  of symmetry 1 at frequencies:
 ABSLRS --  0.44250000  0.44500000  0.44750000  0.45000000
             0.45250000  0.45500000  0.45750000  0.46000000
             0.46250000  0.46500000  0.46750000  0.47000000
             0.47250000  0.47500000  0.47750000  0.48000000
             0.48250000  0.48500000  0.48750000  0.49000000

 Use ABS_READIN_RED           14          13
ITER, IVEC:   1   1  ZDIPLEN    0.4425   RESID, RESID/X:  0.9999996D+00  0.7194208D+02
ITER, IVEC:   1   2  ZDIPLEN    0.4450   RESID, RESID/X:  0.9999996D+00  0.7177462D+02
ITER, IVEC:   1   3  ZDIPLEN    0.4475   RESID, RESID/X:  0.9999996D+00  0.7160610D+02
ITER, IVEC:   1   4  ZDIPLEN    0.4500   RESID, RESID/X:  0.9999996D+00  0.7143651D+02
ITER, IVEC:   1   5  ZDIPLEN    0.4525   RESID, RESID/X:  0.9999996D+00  0.7126586D+02
ITER, IVEC:   1   6  ZDIPLEN    0.4550   RESID, RESID/X:  0.9999996D+00  0.7109414D+02
ITER, IVEC:   1   7  ZDIPLEN    0.4575   RESID, RESID/X:  0.9999996D+00  0.7092134D+02
ITER, IVEC:   1   8  ZDIPLEN    0.4600   RESID, RESID/X:  0.9999996D+00  0.7074746D+02
ITER, IVEC:   1   9  ZDIPLEN    0.4625   RESID, RESID/X:  0.9999996D+00  0.7057249D+02
ITER, IVEC:   1  10  ZDIPLEN    0.4650   RESID, RESID/X:  0.9999996D+00  0.7039642D+02
ITER, IVEC:   1  11  ZDIPLEN    0.4675   RESID, RESID/X:  0.9999995D+00  0.7021926D+02
ITER, IVEC:   1  12  ZDIPLEN    0.4700   RESID, RESID/X:  0.9999995D+00  0.7004099D+02
ITER, IVEC:   1  13  ZDIPLEN    0.4725   RESID, RESID/X:  0.9999995D+00  0.6986161D+02
ITER, IVEC:   1  14  ZDIPLEN    0.4750   RESID, RESID/X:  0.9999995D+00  0.6968112D+02
ITER, IVEC:   1  15  ZDIPLEN    0.4775   RESID, RESID/X:  0.9999995D+00  0.6949950D+02
ITER, IVEC:   1  16  ZDIPLEN    0.4800   RESID, RESID/X:  0.9999995D+00  0.6931675D+02
ITER, IVEC:   1  17  ZDIPLEN    0.4825   RESID, RESID/X:  0.9999995D+00  0.6913287D+02
ITER, IVEC:   1  18  ZDIPLEN    0.4850   RESID, RESID/X:  0.9999995D+00  0.6894784D+02
ITER, IVEC:   1  19  ZDIPLEN    0.4875   RESID, RESID/X:  0.9999995D+00  0.6876166D+02
ITER, IVEC:   1  20  ZDIPLEN    0.4900   RESID, RESID/X:  0.9999995D+00  0.6857432D+02
ITER, IVEC:   2   1  ZDIPLEN    0.4425   RESID, RESID/X:  0.4741747D-01  0.9971568D-01
ITER, IVEC:   2   2  ZDIPLEN    0.4450   RESID, RESID/X:  0.4764940D-01  0.9995749D-01
ITER, IVEC:   2   3  ZDIPLEN    0.4475   RESID, RESID/X:  0.4788384D-01  0.1002009D+00
ITER, IVEC:   2   4  ZDIPLEN    0.4500   RESID, RESID/X:  0.4812083D-01  0.1004459D+00
ITER, IVEC:   2   5  ZDIPLEN    0.4525   RESID, RESID/X:  0.4836039D-01  0.1006925D+00
ITER, IVEC:   2   6  ZDIPLEN    0.4550   RESID, RESID/X:  0.4860256D-01  0.1009407D+00
ITER, IVEC:   2   7  ZDIPLEN    0.4575   RESID, RESID/X:  0.4884739D-01  0.1011906D+00
ITER, IVEC:   2   8  ZDIPLEN    0.4600   RESID, RESID/X:  0.4909491D-01  0.1014421D+00
ITER, IVEC:   2   9  ZDIPLEN    0.4625   RESID, RESID/X:  0.4934516D-01  0.1016953D+00
ITER, IVEC:   2  10  ZDIPLEN    0.4650   RESID, RESID/X:  0.4959818D-01  0.1019502D+00
ITER, IVEC:   2  11  ZDIPLEN    0.4675   RESID, RESID/X:  0.4985401D-01  0.1022068D+00
ITER, IVEC:   2  12  ZDIPLEN    0.4700   RESID, RESID/X:  0.5011268D-01  0.1024651D+00
ITER, IVEC:   2  13  ZDIPLEN    0.4725   RESID, RESID/X:  0.5037426D-01  0.1027251D+00
ITER, IVEC:   2  14  ZDIPLEN    0.4750   RESID, RESID/X:  0.5063877D-01  0.1029869D+00
ITER, IVEC:   2  15  ZDIPLEN    0.4775   RESID, RESID/X:  0.5090626D-01  0.1032505D+00
ITER, IVEC:   2  16  ZDIPLEN    0.4800   RESID, RESID/X:  0.5117678D-01  0.1035158D+00
ITER, IVEC:   2  17  ZDIPLEN    0.4825   RESID, RESID/X:  0.5145037D-01  0.1037830D+00
ITER, IVEC:   2  18  ZDIPLEN    0.4850   RESID, RESID/X:  0.5172709D-01  0.1040519D+00
ITER, IVEC:   2  19  ZDIPLEN    0.4875   RESID, RESID/X:  0.5200697D-01  0.1043228D+00
ITER, IVEC:   2  20  ZDIPLEN    0.4900   RESID, RESID/X:  0.5229008D-01  0.1045955D+00
ITER, IVEC:   3   1  ZDIPLEN    0.4425   RESID, RESID/X:  0.6718850D-07  0.1412382D-06
ITER, IVEC:   3   2  ZDIPLEN    0.4450   RESID, RESID/X:  0.6783853D-07  0.1422543D-06
ITER, IVEC:   3   3  ZDIPLEN    0.4475   RESID, RESID/X:  0.6849776D-07  0.1432811D-06
ITER, IVEC:   3   4  ZDIPLEN    0.4500   RESID, RESID/X:  0.6916635D-07  0.1443187D-06
ITER, IVEC:   3   5  ZDIPLEN    0.4525   RESID, RESID/X:  0.6984447D-07  0.1453674D-06
ITER, IVEC:   3   6  ZDIPLEN    0.4550   RESID, RESID/X:  0.7053227D-07  0.1464271D-06
ITER, IVEC:   3   7  ZDIPLEN    0.4575   RESID, RESID/X:  0.7122993D-07  0.1474982D-06
ITER, IVEC:   3   8  ZDIPLEN    0.4600   RESID, RESID/X:  0.7193762D-07  0.1485806D-06
ITER, IVEC:   3   9  ZDIPLEN    0.4625   RESID, RESID/X:  0.7265551D-07  0.1496745D-06
ITER, IVEC:   3  10  ZDIPLEN    0.4650   RESID, RESID/X:  0.7338377D-07  0.1507801D-06
ITER, IVEC:   3  11  ZDIPLEN    0.4675   RESID, RESID/X:  0.7412261D-07  0.1518976D-06
ITER, IVEC:   3  12  ZDIPLEN    0.4700   RESID, RESID/X:  0.7487219D-07  0.1530270D-06
ITER, IVEC:   3  13  ZDIPLEN    0.4725   RESID, RESID/X:  0.7563272D-07  0.1541685D-06
ITER, IVEC:   3  14  ZDIPLEN    0.4750   RESID, RESID/X:  0.7640439D-07  0.1553223D-06
ITER, IVEC:   3  15  ZDIPLEN    0.4775   RESID, RESID/X:  0.7718740D-07  0.1564886D-06
ITER, IVEC:   3  16  ZDIPLEN    0.4800   RESID, RESID/X:  0.7798196D-07  0.1576675D-06
ITER, IVEC:   3  17  ZDIPLEN    0.4825   RESID, RESID/X:  0.7878829D-07  0.1588591D-06
ITER, IVEC:   3  18  ZDIPLEN    0.4850   RESID, RESID/X:  0.7960659D-07  0.1600636D-06
ITER, IVEC:   3  19  ZDIPLEN    0.4875   RESID, RESID/X:  0.8043710D-07  0.1612813D-06
ITER, IVEC:   3  20  ZDIPLEN    0.4900   RESID, RESID/X:  0.8128003D-07  0.1625123D-06

 *** ABSCTL: REQUESTED  20 SOLUTION VECTORS CONVERGED IN RED SPACES OF  19  18


      **********************************************************************
      ******************** FINAL RESULTS FOR ABSORPTION ********************
      **********************************************************************



                          +-----------------------------+
                          ! Polarizability with damping !
                          +-----------------------------+

 ------------------------------------------------------------------
 No    A-oper    B-oper   Frequency       Real part       Imag part
 ------------------------------------------------------------------

  1   XDIPLEN   XDIPLEN    0.442500        7.096440        0.045945
  2   YDIPLEN   YDIPLEN    0.442500        7.096431        0.045945
  3   ZDIPLEN   ZDIPLEN    0.442500        7.096443        0.045945
  4   XDIPLEN   YDIPLEN    0.442500       -0.000000       -0.000000
  5   XDIPLEN   ZDIPLEN    0.442500       -0.000000        0.000000
  6   YDIPLEN   ZDIPLEN    0.442500       -0.000000       -0.000000

      Averaged value       0.442500        7.096438        0.045945

  7   XDIPLEN   XDIPLEN    0.445000        7.121807        0.046536
  8   YDIPLEN   YDIPLEN    0.445000        7.121799        0.046536
  9   ZDIPLEN   ZDIPLEN    0.445000        7.121810        0.046536
 10   XDIPLEN   YDIPLEN    0.445000       -0.000000       -0.000000
 11   XDIPLEN   ZDIPLEN    0.445000       -0.000000        0.000000
 12   YDIPLEN   ZDIPLEN    0.445000       -0.000000       -0.000000

      Averaged value       0.445000        7.121805        0.046536

 13   XDIPLEN   XDIPLEN    0.447500        7.147501        0.047136
 14   YDIPLEN   YDIPLEN    0.447500        7.147493        0.047136
 15   ZDIPLEN   ZDIPLEN    0.447500        7.147505        0.047136
 16   XDIPLEN   YDIPLEN    0.447500       -0.000000       -0.000000
 17   XDIPLEN   ZDIPLEN    0.447500       -0.000000        0.000000
 18   YDIPLEN   ZDIPLEN    0.447500       -0.000000       -0.000000

      Averaged value       0.447500        7.147500        0.047136

 19   XDIPLEN   XDIPLEN    0.450000        7.173527        0.047745
 20   YDIPLEN   YDIPLEN    0.450000        7.173519        0.047745
 21   ZDIPLEN   ZDIPLEN    0.450000        7.173530        0.047745
 22   XDIPLEN   YDIPLEN    0.450000       -0.000000       -0.000000
 23   XDIPLEN   ZDIPLEN    0.450000       -0.000000        0.000000
 24   YDIPLEN   ZDIPLEN    0.450000       -0.000000       -0.000000

      Averaged value       0.450000        7.173525        0.047745

 25   XDIPLEN   XDIPLEN    0.452500        7.199889        0.048364
 26   YDIPLEN   YDIPLEN    0.452500        7.199881        0.048364
 27   ZDIPLEN   ZDIPLEN    0.452500        7.199893        0.048364
 28   XDIPLEN   YDIPLEN    0.452500       -0.000000       -0.000000
 29   XDIPLEN   ZDIPLEN    0.452500       -0.000000        0.000000
 30   YDIPLEN   ZDIPLEN    0.452500       -0.000000       -0.000000

      Averaged value       0.452500        7.199888        0.048364

 31   XDIPLEN   XDIPLEN    0.455000        7.226594        0.048993
 32   YDIPLEN   YDIPLEN    0.455000        7.226586        0.048993
 33   ZDIPLEN   ZDIPLEN    0.455000        7.226598        0.048993
 34   XDIPLEN   YDIPLEN    0.455000       -0.000000       -0.000000
 35   XDIPLEN   ZDIPLEN    0.455000       -0.000000        0.000000
 36   YDIPLEN   ZDIPLEN    0.455000       -0.000000       -0.000000

      Averaged value       0.455000        7.226593        0.048993

 37   XDIPLEN   XDIPLEN    0.457500        7.253647        0.049632
 38   YDIPLEN   YDIPLEN    0.457500        7.253638        0.049632
 39   ZDIPLEN   ZDIPLEN    0.457500        7.253650        0.049632
 40   XDIPLEN   YDIPLEN    0.457500       -0.000000       -0.000000
 41   XDIPLEN   ZDIPLEN    0.457500       -0.000000        0.000000
 42   YDIPLEN   ZDIPLEN    0.457500       -0.000000       -0.000000

      Averaged value       0.457500        7.253645        0.049632

 43   XDIPLEN   XDIPLEN    0.460000        7.281052        0.050281
 44   YDIPLEN   YDIPLEN    0.460000        7.281044        0.050281
 45   ZDIPLEN   ZDIPLEN    0.460000        7.281056        0.050281
 46   XDIPLEN   YDIPLEN    0.460000       -0.000000       -0.000000
 47   XDIPLEN   ZDIPLEN    0.460000       -0.000000        0.000000
 48   YDIPLEN   ZDIPLEN    0.460000       -0.000000       -0.000000

      Averaged value       0.460000        7.281051        0.050281

 49   XDIPLEN   XDIPLEN    0.462500        7.308817        0.050941
 50   YDIPLEN   YDIPLEN    0.462500        7.308809        0.050941
 51   ZDIPLEN   ZDIPLEN    0.462500        7.308820        0.050941
 52   XDIPLEN   YDIPLEN    0.462500       -0.000000       -0.000000
 53   XDIPLEN   ZDIPLEN    0.462500       -0.000000        0.000000
 54   YDIPLEN   ZDIPLEN    0.462500       -0.000000       -0.000000

      Averaged value       0.462500        7.308815        0.050941

 55   XDIPLEN   XDIPLEN    0.465000        7.336946        0.051611
 56   YDIPLEN   YDIPLEN    0.465000        7.336938        0.051611
 57   ZDIPLEN   ZDIPLEN    0.465000        7.336950        0.051612
 58   XDIPLEN   YDIPLEN    0.465000       -0.000000       -0.000000
 59   XDIPLEN   ZDIPLEN    0.465000       -0.000000        0.000000
 60   YDIPLEN   ZDIPLEN    0.465000       -0.000000       -0.000000

      Averaged value       0.465000        7.336945        0.051611

 61   XDIPLEN   XDIPLEN    0.467500        7.365447        0.052293
 62   YDIPLEN   YDIPLEN    0.467500        7.365438        0.052293
 63   ZDIPLEN   ZDIPLEN    0.467500        7.365450        0.052293
 64   XDIPLEN   YDIPLEN    0.467500       -0.000000       -0.000000
 65   XDIPLEN   ZDIPLEN    0.467500       -0.000000        0.000000
 66   YDIPLEN   ZDIPLEN    0.467500       -0.000000       -0.000000

      Averaged value       0.467500        7.365445        0.052293

 67   XDIPLEN   XDIPLEN    0.470000        7.394324        0.052986
 68   YDIPLEN   YDIPLEN    0.470000        7.394316        0.052986
 69   ZDIPLEN   ZDIPLEN    0.470000        7.394328        0.052986
 70   XDIPLEN   YDIPLEN    0.470000       -0.000000       -0.000000
 71   XDIPLEN   ZDIPLEN    0.470000       -0.000000        0.000000
 72   YDIPLEN   ZDIPLEN    0.470000       -0.000000       -0.000000

      Averaged value       0.470000        7.394322        0.052986

 73   XDIPLEN   XDIPLEN    0.472500        7.423584        0.053690
 74   YDIPLEN   YDIPLEN    0.472500        7.423576        0.053690
 75   ZDIPLEN   ZDIPLEN    0.472500        7.423588        0.053690
 76   XDIPLEN   YDIPLEN    0.472500       -0.000000       -0.000000
 77   XDIPLEN   ZDIPLEN    0.472500       -0.000000        0.000000
 78   YDIPLEN   ZDIPLEN    0.472500       -0.000000       -0.000000

      Averaged value       0.472500        7.423583        0.053690

 79   XDIPLEN   XDIPLEN    0.475000        7.453235        0.054407
 80   YDIPLEN   YDIPLEN    0.475000        7.453226        0.054407
 81   ZDIPLEN   ZDIPLEN    0.475000        7.453238        0.054407
 82   XDIPLEN   YDIPLEN    0.475000       -0.000000       -0.000000
 83   XDIPLEN   ZDIPLEN    0.475000       -0.000000        0.000000
 84   YDIPLEN   ZDIPLEN    0.475000       -0.000000       -0.000000

      Averaged value       0.475000        7.453233        0.054407

 85   XDIPLEN   XDIPLEN    0.477500        7.483281        0.055135
 86   YDIPLEN   YDIPLEN    0.477500        7.483272        0.055135
 87   ZDIPLEN   ZDIPLEN    0.477500        7.483284        0.055135
 88   XDIPLEN   YDIPLEN    0.477500       -0.000000       -0.000000
 89   XDIPLEN   ZDIPLEN    0.477500       -0.000000        0.000000
 90   YDIPLEN   ZDIPLEN    0.477500       -0.000000       -0.000000

      Averaged value       0.477500        7.483279        0.055135

 91   XDIPLEN   XDIPLEN    0.480000        7.513730        0.055876
 92   YDIPLEN   YDIPLEN    0.480000        7.513722        0.055876
 93   ZDIPLEN   ZDIPLEN    0.480000        7.513734        0.055876
 94   XDIPLEN   YDIPLEN    0.480000       -0.000000       -0.000000
 95   XDIPLEN   ZDIPLEN    0.480000       -0.000000        0.000000
 96   YDIPLEN   ZDIPLEN    0.480000       -0.000000       -0.000000

      Averaged value       0.480000        7.513729        0.055876

 97   XDIPLEN   XDIPLEN    0.482500        7.544589        0.056630
 98   YDIPLEN   YDIPLEN    0.482500        7.544581        0.056630
 99   ZDIPLEN   ZDIPLEN    0.482500        7.544593        0.056630
100   XDIPLEN   YDIPLEN    0.482500       -0.000000       -0.000000
101   XDIPLEN   ZDIPLEN    0.482500       -0.000000        0.000000
102   YDIPLEN   ZDIPLEN    0.482500       -0.000000       -0.000000

      Averaged value       0.482500        7.544588        0.056630

103   XDIPLEN   XDIPLEN    0.485000        7.575865        0.057396
104   YDIPLEN   YDIPLEN    0.485000        7.575857        0.057396
105   ZDIPLEN   ZDIPLEN    0.485000        7.575869        0.057396
106   XDIPLEN   YDIPLEN    0.485000       -0.000001       -0.000000
107   XDIPLEN   ZDIPLEN    0.485000       -0.000000        0.000000
108   YDIPLEN   ZDIPLEN    0.485000       -0.000000       -0.000000

      Averaged value       0.485000        7.575864        0.057396

109   XDIPLEN   XDIPLEN    0.487500        7.607565        0.058176
110   YDIPLEN   YDIPLEN    0.487500        7.607557        0.058176
111   ZDIPLEN   ZDIPLEN    0.487500        7.607569        0.058176
112   XDIPLEN   YDIPLEN    0.487500       -0.000001       -0.000000
113   XDIPLEN   ZDIPLEN    0.487500       -0.000000        0.000000
114   YDIPLEN   ZDIPLEN    0.487500       -0.000000       -0.000000

      Averaged value       0.487500        7.607564        0.058176

115   XDIPLEN   XDIPLEN    0.490000        7.639697        0.058970
116   YDIPLEN   YDIPLEN    0.490000        7.639688        0.058970
117   ZDIPLEN   ZDIPLEN    0.490000        7.639700        0.058970
118   XDIPLEN   YDIPLEN    0.490000       -0.000001       -0.000000
119   XDIPLEN   ZDIPLEN    0.490000       -0.000000        0.000000
120   YDIPLEN   ZDIPLEN    0.490000       -0.000000       -0.000000

      Averaged value       0.490000        7.639695        0.058970
 
 ------------------------------------------------------------------
 Damping parameter equals  0.004556 au = 0.1240 eV =  999.9 cm-1

  Total CPU  time used in RESPONSE:   0.04 seconds
  Total wall time used in RESPONSE:   0.04 seconds


                   .-------------------------------------------.
                   | End of Dynamic Property Section (RESPONS) |
                   `-------------------------------------------'

  Total CPU  time used in DALTON:   0.10 seconds
  Total wall time used in DALTON:   0.10 seconds

 
     Date and time (Linux)  : Wed Mar  9 13:53:39 2016
     Host name              : olav-ThinkPad-W540                      
