

     ************************************************************************
     *************** Dalton - An Electronic Structure Program ***************
     ************************************************************************

    This is output from DALTON release Dalton2017.alpha (2016)
         ( Web site: http://daltonprogram.org )

   ----------------------------------------------------------------------------

    NOTE:
     
    Dalton is an experimental code for the evaluation of molecular
    properties using (MC)SCF, DFT, CI, and CC wave functions.
    The authors accept no responsibility for the performance of
    the code or for the correctness of the results.
     
    The code (in whole or part) is provided under a licence and
    is not to be reproduced for further distribution without
    the written permission of the authors or their representatives.
     
    See the home page "http://daltonprogram.org" for further information.
     
    If results obtained with this code are published,
    the appropriate citations would be both of:
     
       K. Aidas, C. Angeli, K. L. Bak, V. Bakken, R. Bast,
       L. Boman, O. Christiansen, R. Cimiraglia, S. Coriani,
       P. Dahle, E. K. Dalskov, U. Ekstroem,
       T. Enevoldsen, J. J. Eriksen, P. Ettenhuber, B. Fernandez,
       L. Ferrighi, H. Fliegl, L. Frediani, K. Hald, A. Halkier,
       C. Haettig, H. Heiberg, T. Helgaker, A. C. Hennum,
       H. Hettema, E. Hjertenaes, S. Hoest, I.-M. Hoeyvik,
       M. F. Iozzi, B. Jansik, H. J. Aa. Jensen, D. Jonsson,
       P. Joergensen, J. Kauczor, S. Kirpekar,
       T. Kjaergaard, W. Klopper, S. Knecht, R. Kobayashi, H. Koch,
       J. Kongsted, A. Krapp, K. Kristensen, A. Ligabue,
       O. B. Lutnaes, J. I. Melo, K. V. Mikkelsen, R. H. Myhre,
       C. Neiss, C. B. Nielsen, P. Norman, J. Olsen,
       J. M. H. Olsen, A. Osted, M. J. Packer, F. Pawlowski,
       T. B. Pedersen, P. F. Provasi, S. Reine, Z. Rinkevicius,
       T. A. Ruden, K. Ruud, V. Rybkin, P. Salek, C. C. M. Samson,
       A. Sanchez de Meras, T. Saue, S. P. A. Sauer,
       B. Schimmelpfennig, K. Sneskov, A. H. Steindal,
       K. O. Sylvester-Hvid, P. R. Taylor, A. M. Teale,
       E. I. Tellgren, D. P. Tew, A. J. Thorvaldsen, L. Thoegersen,
       O. Vahtras, M. A. Watson, D. J. D. Wilson, M. Ziolkowski
       and H. Agren,
       "The Dalton quantum chemistry program system",
       WIREs Comput. Mol. Sci. 2014, 4:269–284 (doi: 10.1002/wcms.1172)
     
    and
     
       Dalton, a Molecular Electronic Structure Program,
       Release Dalton2017.alpha (2016), see http://daltonprogram.org
   ----------------------------------------------------------------------------

    Authors in alphabetical order (major contribution(s) in parenthesis):

  Kestutis Aidas,           Vilnius University,           Lithuania   (QM/MM)
  Celestino Angeli,         University of Ferrara,        Italy       (NEVPT2)
  Keld L. Bak,              UNI-C,                        Denmark     (AOSOPPA, non-adiabatic coupling, magnetic properties)
  Vebjoern Bakken,          University of Oslo,           Norway      (DALTON; geometry optimizer, symmetry detection)
  Radovan Bast,             UiT The Arctic U. of Norway,  Norway      (DALTON installation and execution frameworks)
  Pablo Baudin,             University of Valencia,       Spain       (Cholesky excitation energies)
  Linus Boman,              NTNU,                         Norway      (Cholesky decomposition and subsystems)
  Ove Christiansen,         Aarhus University,            Denmark     (CC module)
  Renzo Cimiraglia,         University of Ferrara,        Italy       (NEVPT2)
  Sonia Coriani,            University of Trieste,        Italy       (CC module, MCD in RESPONS)
  Janusz Cukras,            University of Trieste,        Italy       (MChD in RESPONS)
  Paal Dahle,               University of Oslo,           Norway      (Parallelization)
  Erik K. Dalskov,          UNI-C,                        Denmark     (SOPPA)
  Thomas Enevoldsen,        Univ. of Southern Denmark,    Denmark     (SOPPA)
  Janus J. Eriksen,         Aarhus University,            Denmark     (Polarizable embedding model, TDA)
  Rasmus Faber,             University of Copenhagen,     Denmark     (Vib.avg. NMR with SOPPA, parallel AO-SOPPA)
  Berta Fernandez,          U. of Santiago de Compostela, Spain       (doublet spin, ESR in RESPONS)
  Lara Ferrighi,            Aarhus University,            Denmark     (PCM Cubic response)
  Heike Fliegl,             University of Oslo,           Norway      (CCSD(R12))
  Luca Frediani,            UiT The Arctic U. of Norway,  Norway      (PCM)
  Bin Gao,                  UiT The Arctic U. of Norway,  Norway      (Gen1Int library)
  Christof Haettig,         Ruhr-University Bochum,       Germany     (CC module)
  Kasper Hald,              Aarhus University,            Denmark     (CC module)
  Asger Halkier,            Aarhus University,            Denmark     (CC module)
  Frederik Beyer Hansen,    University of Copenhagen,     Denmark     (Parallel AO-SOPPA)
  Erik D. Hedegaard,        Univ. of Southern Denmark,    Denmark     (Polarizable embedding model, QM/MM)
  Hanne Heiberg,            University of Oslo,           Norway      (geometry analysis, selected one-electron integrals)
  Trygve Helgaker,          University of Oslo,           Norway      (DALTON; ABACUS, ERI, DFT modules, London, and much more)
  Alf Christian Hennum,     University of Oslo,           Norway      (Parity violation)
  Hinne Hettema,            University of Auckland,       New Zealand (quadratic response in RESPONS; SIRIUS supersymmetry)
  Eirik Hjertenaes,         NTNU,                         Norway      (Cholesky decomposition)
  Maria Francesca Iozzi,    University of Oslo,           Norway      (RPA)
  Brano Jansik              Technical Univ. of Ostrava    Czech Rep.  (DFT cubic response)
  Hans Joergen Aa. Jensen,  Univ. of Southern Denmark,    Denmark     (DALTON; SIRIUS, RESPONS, ABACUS modules, London, and much more)
  Dan Jonsson,              UiT The Arctic U. of Norway,  Norway      (cubic response in RESPONS module)
  Poul Joergensen,          Aarhus University,            Denmark     (RESPONS, ABACUS, and CC modules)
  Maciej Kaminski,          University of Warsaw,         Poland      (CPPh in RESPONS)
  Joanna Kauczor,           Linkoeping University,        Sweden      (Complex polarization propagator (CPP) module)
  Sheela Kirpekar,          Univ. of Southern Denmark,    Denmark     (Mass-velocity & Darwin integrals)
  Wim Klopper,              KIT Karlsruhe,                Germany     (R12 code in CC, SIRIUS, and ABACUS modules)
  Stefan Knecht,            ETH Zurich,                   Switzerland (Parallel CI and MCSCF)
  Rika Kobayashi,           Australian National Univ.,    Australia   (DIIS in CC, London in MCSCF)
  Henrik Koch,              NTNU,                         Norway      (CC module, Cholesky decomposition)
  Jacob Kongsted,           Univ. of Southern Denmark,    Denmark     (Polarizable embedding model, QM/MM)
  Andrea Ligabue,           University of Modena,         Italy       (CTOCD, AOSOPPA)
  Nanna H. List             Univ. of Southern Denmark,    Denmark     (Polarizable embedding model)
  Ola B. Lutnaes,           University of Oslo,           Norway      (DFT Hessian)
  Juan I. Melo,             University of Buenos Aires,   Argentina   (LRESC, Relativistic Effects on NMR Shieldings)
  Kurt V. Mikkelsen,        University of Copenhagen,     Denmark     (MC-SCRF and QM/MM)
  Rolf H. Myhre,            NTNU,                         Norway      (Cholesky, subsystems and ECC2)
  Christian Neiss,          Univ. Erlangen-Nuernberg,     Germany     (CCSD(R12))
  Christian B. Nielsen,     University of Copenhagen,     Denmark     (QM/MM)
  Patrick Norman,           Linkoeping University,        Sweden      (Cubic response and complex frequency response in RESPONS)
  Jeppe Olsen,              Aarhus University,            Denmark     (SIRIUS CI/density modules)
  Jogvan Magnus H. Olsen,   Univ. of Southern Denmark,    Denmark     (Polarizable embedding model, QM/MM)
  Anders Osted,             Copenhagen University,        Denmark     (QM/MM)
  Martin J. Packer,         University of Sheffield,      UK          (SOPPA)
  Filip Pawlowski,          Kazimierz Wielki University,  Poland      (CC3)
  Morten N. Pedersen,       Univ. of Southern Denmark,    Denmark     (Polarizable embedding model)
  Thomas B. Pedersen,       University of Oslo,           Norway      (Cholesky decomposition)
  Patricio F. Provasi,      University of Northeastern,   Argentina   (Analysis of coupling constants in localized orbitals)
  Zilvinas Rinkevicius,     KTH Stockholm,                Sweden      (open-shell DFT, ESR)
  Elias Rudberg,            KTH Stockholm,                Sweden      (DFT grid and basis info)
  Torgeir A. Ruden,         University of Oslo,           Norway      (Numerical derivatives in ABACUS)
  Kenneth Ruud,             UiT The Arctic U. of Norway,  Norway      (DALTON; ABACUS magnetic properties and much more)
  Pawel Salek,              KTH Stockholm,                Sweden      (DALTON; DFT code)
  Claire C. M. Samson       University of Karlsruhe       Germany     (Boys localization, r12 integrals in ERI)
  Alfredo Sanchez de Meras, University of Valencia,       Spain       (CC module, Cholesky decomposition)
  Trond Saue,               Paul Sabatier University,     France      (direct Fock matrix construction)
  Stephan P. A. Sauer,      University of Copenhagen,     Denmark     (SOPPA(CCSD), SOPPA prop., AOSOPPA, vibrational g-factors)
  Bernd Schimmelpfennig,    Forschungszentrum Karlsruhe,  Germany     (AMFI module)
  Kristian Sneskov,         Aarhus University,            Denmark     (Polarizable embedding model, QM/MM)
  Arnfinn H. Steindal,      UiT The Arctic U. of Norway,  Norway      (parallel QM/MM, Polarizable embedding model)
  Casper Steinmann,         Univ. of Southern Denmark,    Denmark     (QFIT, Polarizable embedding model)
  K. O. Sylvester-Hvid,     University of Copenhagen,     Denmark     (MC-SCRF)
  Peter R. Taylor,          VLSCI/Univ. of Melbourne,     Australia   (Symmetry handling ABACUS, integral transformation)
  Andrew M. Teale,          University of Nottingham,     England     (DFT-AC, DFT-D)
  David P. Tew,             University of Bristol,        England     (CCSD(R12))
  Olav Vahtras,             KTH Stockholm,                Sweden      (triplet response, spin-orbit, ESR, TDDFT, open-shell DFT)
  David J. Wilson,          La Trobe University,          Australia   (DFT Hessian and DFT magnetizabilities)
  Hans Agren,               KTH Stockholm,                Sweden      (SIRIUS module, RESPONS, MC-SCRF solvation model)
 --------------------------------------------------------------------------------

     Date and time (Linux)  : Wed Sep 21 07:21:33 2016
     Host name              : olav-ThinkPad-W540                      

 * Work memory size             :    64000000 =  488.28 megabytes.

 * Directories for basis set searches:
   1) /home/olav/dev/py/daltools/tests/test_sirifc2.d
   2) /home/olav/dev/daltonprogram/dalton/build/master/basis


Compilation information
-----------------------

 Who compiled             | olav
 Host                     | olav-ThinkPad-W540
 System                   | Linux-4.4.0-21-generic
 CMake generator          | Unix Makefiles
 Processor                | x86_64
 64-bit integers          | OFF
 MPI                      | ON
 Fortran compiler         | /usr/bin/mpif90
 Fortran compiler version | GNU Fortran (Ubuntu 5.3.1-14ubuntu2) 5.3.1 2016041
                          | 3
 C compiler               | /usr/bin/mpicc
 C compiler version       | gcc (Ubuntu 5.3.1-14ubuntu2) 5.3.1 20160413
 C++ compiler             | /usr/bin/mpicxx
 C++ compiler version     | unknown
 BLAS                     | /usr/lib/libblas.so
 LAPACK                   | /usr/lib/liblapack.so
 Static linking           | OFF
 Last Git revision        | b1631daed6a54e64d3a1565428a692c784e53882
 Git branch               | master
 Configuration time       | 2016-06-23 13:25:17.951294

 * Sequential calculation.


   Content of the .dal input file
 ----------------------------------

**DALTON
.RUN RESPONSE
**INTEGRALS
.DIPLEN
.PROPRI
**WAVE FUNCTIONS
.HF
.MP2
.MCSCF
*CONFIG
.INACTIVE
 7
.CAS SPACE
 2
.ELECTRONS
 2
.SYMMETRY
 1
.SPIN M
 1
*SCF INPUT
.THRESH
1.0D-12
.PRINT
 3
*OPTIMI
.DETERM
**RESPONSE
*LINEAR
.DIPLEN
.THCLR
1.0D-9
.FREQUE
 2
 0. 0.5
**END OF DALTON INPUT


   Content of the .mol file
 ----------------------------

ATOMBASIS
CH2O
------------------------
    3              A 1.00D-12
        6.0   1    Basis=STO-3G
C           -1.588367    -.770650     .029109
        8.0   1    Basis=STO-3G
O           -1.657083     .436069    -.009750
        1.0   2    Basis=STO-3G
H           -.620668   -1.294822      .054251
H           -2.508043   -1.382001     .040282


       *******************************************************************
       *********** Output from DALTON general input processing ***********
       *******************************************************************

 --------------------------------------------------------------------------------
   Overall default print level:    0
   Print level for DALTON.STAT:    1

    HERMIT 1- and 2-electron integral sections will be executed
    "Old" integral transformation used (limited to max 255 basis functions)
    Wave function sections will be executed (SIRIUS module)
    Dynamic molecular response properties section will be executed (RESPONSE module)
 --------------------------------------------------------------------------------


   ****************************************************************************
   *************** Output of molecule and basis set information ***************
   ****************************************************************************


    The two title cards from your ".mol" input:
    ------------------------------------------------------------------------
 1: CH2O                                                                    
 2: ------------------------                                                
    ------------------------------------------------------------------------



@ WARNING - deprecated old .mol fixed format input has been detected:
    3              A 1.00D-12                                                   
@ WARNING - this input format may not be supported in future releases.




  Coordinates are entered in Angstrom and converted to atomic units.
          - Conversion factor : 1 bohr = 0.52917721 A

  Atomic type no.    1
  --------------------
  Nuclear charge:   6.00000
  Number of symmetry independent centers:    1
  Number of basis sets to read;    2
  The basis set is "STO-3G" from the basis set library.
  Basis set file used for this atomic type with Z =   6 :
     "/home/olav/dev/daltonprogram/dalton/build/master/basis/STO-3G"

  Atomic type no.    2
  --------------------
  Nuclear charge:   8.00000
  Number of symmetry independent centers:    1
  Number of basis sets to read;    2
  The basis set is "STO-3G" from the basis set library.
  Basis set file used for this atomic type with Z =   8 :
     "/home/olav/dev/daltonprogram/dalton/build/master/basis/STO-3G"

  Atomic type no.    3
  --------------------
  Nuclear charge:   1.00000
  Number of symmetry independent centers:    2
  Number of basis sets to read;    2
  The basis set is "STO-3G" from the basis set library.
  Basis set file used for this atomic type with Z =   1 :
     "/home/olav/dev/daltonprogram/dalton/build/master/basis/STO-3G"


                      SYMADD: Requested addition of symmetry
                      --------------------------------------

 Symmetry test threshold:  5.00E-06

@   The molecule is centered at center of mass and rotated
@   so principal axes of inertia are along coordinate axes.

 Symmetry class found: C(1)           

 Symmetry Independent Centres             
 ----------------------------
       8 :      0.00000000     0.00105827     1.13941835  Isotope  1
       6 :      0.00001741     0.00105028    -1.14582446  Isotope  1
       1 :     -0.00006987    -1.79980438    -2.20056359  Isotope  1
       1 :     -0.00007111     1.77050338    -2.23969756  Isotope  1

 No symmetry elements were found.


                         SYMGRP: Point group information
                         -------------------------------

@    Full point group is: C(1)           
@    Represented as:      C1 


                                 Isotopic Masses
                                 ---------------

                           C          12.000000
                           O          15.994915
                           H           1.007825
                           H           1.007825

                       Total mass:    30.010565 amu
                       Natural abundance:  98.633 %

 Center-of-mass coordinates (a.u.):    0.000002   -0.000000    0.000000


  Atoms and basis sets
  --------------------

  Number of atom types :    3
  Total number of atoms:    4

  label    atoms   charge   prim   cont     basis
  ----------------------------------------------------------------------
  C           1    6.0000    15     5      [6s3p|2s1p]                                        
  O           1    8.0000    15     5      [6s3p|2s1p]                                        
  H           2    1.0000     3     1      [3s|1s]                                            
  ----------------------------------------------------------------------
  total:      4   16.0000    36    12
  ----------------------------------------------------------------------

  Threshold for neglecting AO integrals:  1.00D-12


  Cartesian Coordinates (a.u.)
  ----------------------------

  Total number of coordinates:   12
  C       :     1  x   0.0000174063    2  y   0.0010502766    3  z  -1.1458244562
  O       :     4  x   0.0000000000    5  y   0.0010582718    6  z   1.1394183506
  H       :     7  x  -0.0000711057    8  y   1.7705033754    9  z  -2.2396975555
  H       :    10  x  -0.0000698661   11  y  -1.7998043817   12  z  -2.2005635940


   Interatomic separations (in Angstrom):
   --------------------------------------

            C           O           H           H     
            ------      ------      ------      ------
 C     :    0.000000
 O     :    1.209298    0.000000
 H     :    1.100831    2.018474    0.000000
 H     :    1.104391    2.007988    1.889439    0.000000


  Max    interatomic separation is    2.0185 Angstrom (    3.8144 Bohr)
  between atoms    3 and    2, "H     " and "O     ".

  Min HX interatomic separation is    1.1008 Angstrom (    2.0803 Bohr)

  Min YX interatomic separation is    1.2093 Angstrom (    2.2852 Bohr)


  Bond distances (Angstrom):
  --------------------------

                  atom 1     atom 2       distance
                  ------     ------       --------
  bond distance:  O          C            1.209298
  bond distance:  H          C            1.100831
  bond distance:  H          C            1.104391


  Bond angles (degrees):
  ----------------------

                  atom 1     atom 2     atom 3         angle
                  ------     ------     ------         -----
  bond angle:     O          C          H            121.724
  bond angle:     O          C          H            120.357
  bond angle:     H          C          H            117.919




 Principal moments of inertia (u*A**2) and principal axes
 --------------------------------------------------------

   IA       1.798871          0.000002    0.000000    1.000000
   IB      13.009178          0.000000    1.000000   -0.000000
   IC      14.808049          1.000000   -0.000000   -0.000002


 Rotational constants
 --------------------

@    The molecule is planar.

               A                   B                   C

         280942.3015          38847.8806          34128.6681 MHz
            9.371226            1.295826            1.138410 cm-1


@  Nuclear repulsion energy :   31.249215316217 Hartree


                     .---------------------------------------.
                     | Starting in Integral Section (HERMIT) |
                     `---------------------------------------'



 ***************************************************************************************
 ****************** Output from **INTEGRALS input processing (HERMIT) ******************
 ***************************************************************************************



    *************************************************************************
    ****************** Output from HERMIT input processing ******************
    *************************************************************************


 Default print level:        1

 * Nuclear model: Point charge

 Calculation of one- and two-electron Hamiltonian integrals.

 The following one-electron property integrals are calculated as requested:
          - overlap integrals
          - dipole length integrals

 All one-electron property integrals are printed.

 Center of mass  (bohr):      0.000002225914     -0.000000000000      0.000000000000
 Operator center (bohr):      0.000000000000      0.000000000000      0.000000000000
 Gauge origin    (bohr):      0.000002225914     -0.000000000000      0.000000000000
 Dipole origin   (bohr):      0.000002225914     -0.000000000000      0.000000000000


     ************************************************************************
     ************************** Output from HERINT **************************
     ************************************************************************



                        +---------------------------------+
                        ! Integrals of operator: HUCKOVLP !
                        +---------------------------------+

 Symmetry of operator:  A  ( 1)

               Column   1     Column   2     Column   3     Column   4
       1       1.00000000
       2       0.24836239     1.00000000
       3      -0.00000000    -0.00000000     1.00000000
       4       0.00000000    -0.00000000     0.00000000     1.00000000
       5      -0.00000000     0.00000000    -0.00000000    -0.00000000
       6       0.00000126     0.03708896    -0.00000048     0.00000022
       7       0.03664911     0.36526353    -0.00000338     0.00000155
       8       0.00000047     0.00000246     0.21189133     0.00000000
       9      -0.00000022    -0.00000113     0.00000000     0.21189133
      10      -0.06147399    -0.32256885     0.00000400    -0.00000184
      11       0.06072046     0.48453953    -0.00001972     0.39427368
      12       0.06021809     0.48250496    -0.00001933    -0.39890626
      13       0.99961527     0.26514019     0.00000000     0.00000000
      14      -0.01689497     0.96121613     0.00000000     0.00000000
      15      -0.00000000     0.00000000     0.97064159     0.00000000
      16      -0.00000000     0.00000000     0.00000000     0.97064159
      17       0.00000000    -0.00000000     0.00000000     0.00000000
      18      -0.00001606     0.04052232    -0.00000052     0.00000024
      19       0.03909135     0.37911154    -0.00000327     0.00000150
      20       0.00000061     0.00000313     0.26775601     0.00000000
      21      -0.00000028    -0.00000144     0.00000000     0.26775601
      22      -0.08017390    -0.41094900     0.00000408    -0.00000187
      23       0.06809848     0.52517353    -0.00001899     0.37970328
      24       0.06762522     0.52320297    -0.00001863    -0.38434640

               Column   5     Column   6     Column   7     Column   8
       5       1.00000000
       6       0.06242065     1.00000000
       7       0.44403271     0.23670394     1.00000000
       8       0.00000400     0.00000000     0.00000000     1.00000000
       9      -0.00000184    -0.00000000     0.00000000     0.00000000
      10      -0.31360545    -0.00000000     0.00000000     0.00000000
      11      -0.24373936     0.00476429     0.07308063    -0.00000152
      12      -0.23363465     0.00488694     0.07467580    -0.00000153
      13      -0.00000000     0.00011693     0.04049166     0.00000051
      14      -0.00000000     0.03918862     0.37918429     0.00000230
      15       0.00000000    -0.00000054    -0.00000379     0.23692239
      16       0.00000000     0.00000025     0.00000174     0.00000000
      17       0.97064159     0.07062203     0.49816695     0.00000367
      18       0.06781981     0.99963744     0.25305034     0.00000000
      19       0.42954526    -0.01704350     0.96584043     0.00000000
      20       0.00000408     0.00000000     0.00000000     0.98098348
      21      -0.00000187    -0.00000000     0.00000000     0.00000000
      22      -0.26801827     0.00000000     0.00000000     0.00000000
      23      -0.23473196     0.00721444     0.09884274    -0.00000171
      24      -0.22510711     0.00736009     0.10063156    -0.00000172

               Column   9     Column  10     Column  11     Column  12
       9       1.00000000
      10       0.00000000     1.00000000
      11       0.03771757    -0.07202938     1.00000000
      12      -0.03934100    -0.07296405     0.14255017     1.00000000
      13      -0.00000024    -0.06718201     0.06628742     0.06574732
      14      -0.00000106    -0.30190619     0.49957773     0.49769259
      15       0.00000000     0.00000367    -0.00002221    -0.00002179
      16       0.23692239    -0.00000168     0.44401781    -0.44972765
      17      -0.00000168    -0.24465130    -0.27449111    -0.26340013
      18       0.00000000     0.00000000     0.00533322     0.00546690
      19      -0.00000000    -0.00000000     0.08607553     0.08778817
      20       0.00000000     0.00000000    -0.00000298    -0.00000298
      21       0.98098348     0.00000000     0.07406203    -0.07676260
      22       0.00000000     0.98098348    -0.14143653    -0.14236827
      23       0.04260688    -0.08136651     0.99165347     0.17727154
      24      -0.04435218    -0.08225806     0.17727154     0.99165347

               Column  13     Column  14     Column  15     Column  16
      13       1.00000000
      14       0.00000001     1.00000000
      15      -0.00000000    -0.00000000     1.00000000
      16      -0.00000000     0.00000000     0.00000000     1.00000000
      17       0.00000000    -0.00000000    -0.00000000    -0.00000000
      18       0.00012298     0.04284457    -0.00000058     0.00000027
      19       0.04312425     0.39465894    -0.00000371     0.00000171
      20       0.00000066     0.00000296     0.31793739     0.00000000
      21      -0.00000030    -0.00000136     0.00000000     0.31793739
      22      -0.08695837    -0.38891551     0.00000386    -0.00000177
      23       0.07410878     0.54519046    -0.00002189     0.43758991
      24       0.07359992     0.54335346    -0.00002149    -0.44340816

               Column  17     Column  18     Column  19     Column  20
      17       1.00000000
      18       0.07651184     1.00000000
      19       0.48749136    -0.00000000     1.00000000
      20       0.00000386     0.00000000     0.00000000     1.00000000
      21      -0.00000177    -0.00000000     0.00000000     0.00000000
      22      -0.18837636    -0.00000000     0.00000000     0.00000000
      23      -0.27051739     0.00802463     0.11359763    -0.00000328
      24      -0.25969888     0.00818369     0.11550412    -0.00000328

               Column  21     Column  22     Column  23     Column  24
      21       1.00000000
      22       0.00000000     1.00000000
      23       0.08160337    -0.15583826     1.00000000
      24      -0.08446665    -0.15665664     0.21835546     1.00000000
    ==== End of matrix output ====


                         +-------------------------------+
                         ! Integrals of operator: HUCKEL !
                         +-------------------------------+

 Symmetry of operator:  A  ( 1)

               Column   1     Column   2     Column   3     Column   4
       1       1.00000000
       2       0.24836239     1.00000000
       3      -0.00000000    -0.00000000     1.00000000
       4       0.00000000    -0.00000000     0.00000000     1.00000000
       5      -0.00000000     0.00000000    -0.00000000    -0.00000000
       6       0.00000126     0.03708896    -0.00000048     0.00000022
       7       0.03664911     0.36526353    -0.00000338     0.00000155
       8       0.00000047     0.00000246     0.21189133     0.00000000
       9      -0.00000022    -0.00000113     0.00000000     0.21189133
      10      -0.06147399    -0.32256885     0.00000400    -0.00000184
      11       0.06072046     0.48453953    -0.00001972     0.39427368
      12       0.06021809     0.48250496    -0.00001933    -0.39890626
      13       0.99961527     0.26514019     0.00000000     0.00000000
      14      -0.01689497     0.96121613     0.00000000     0.00000000
      15      -0.00000000     0.00000000     0.97064159     0.00000000
      16      -0.00000000     0.00000000     0.00000000     0.97064159
      17       0.00000000    -0.00000000     0.00000000     0.00000000
      18      -0.00001606     0.04052232    -0.00000052     0.00000024
      19       0.03909135     0.37911154    -0.00000327     0.00000150
      20       0.00000061     0.00000313     0.26775601     0.00000000
      21      -0.00000028    -0.00000144     0.00000000     0.26775601
      22      -0.08017390    -0.41094900     0.00000408    -0.00000187
      23       0.06809848     0.52517353    -0.00001899     0.37970328
      24       0.06762522     0.52320297    -0.00001863    -0.38434640

               Column   5     Column   6     Column   7     Column   8
       5       1.00000000
       6       0.06242065     1.00000000
       7       0.44403271     0.23670394     1.00000000
       8       0.00000400     0.00000000     0.00000000     1.00000000
       9      -0.00000184    -0.00000000     0.00000000     0.00000000
      10      -0.31360545    -0.00000000     0.00000000     0.00000000
      11      -0.24373936     0.00476429     0.07308063    -0.00000152
      12      -0.23363465     0.00488694     0.07467580    -0.00000153
      13      -0.00000000     0.00011693     0.04049166     0.00000051
      14      -0.00000000     0.03918862     0.37918429     0.00000230
      15       0.00000000    -0.00000054    -0.00000379     0.23692239
      16       0.00000000     0.00000025     0.00000174     0.00000000
      17       0.97064159     0.07062203     0.49816695     0.00000367
      18       0.06781981     0.99963744     0.25305034     0.00000000
      19       0.42954526    -0.01704350     0.96584043     0.00000000
      20       0.00000408     0.00000000     0.00000000     0.98098348
      21      -0.00000187    -0.00000000     0.00000000     0.00000000
      22      -0.26801827     0.00000000     0.00000000     0.00000000
      23      -0.23473196     0.00721444     0.09884274    -0.00000171
      24      -0.22510711     0.00736009     0.10063156    -0.00000172

               Column   9     Column  10     Column  11     Column  12
       9       1.00000000
      10       0.00000000     1.00000000
      11       0.03771757    -0.07202938     1.00000000
      12      -0.03934100    -0.07296405     0.14255017     1.00000000
      13      -0.00000024    -0.06718201     0.06628742     0.06574732
      14      -0.00000106    -0.30190619     0.49957773     0.49769259
      15       0.00000000     0.00000367    -0.00002221    -0.00002179
      16       0.23692239    -0.00000168     0.44401781    -0.44972765
      17      -0.00000168    -0.24465130    -0.27449111    -0.26340013
      18       0.00000000     0.00000000     0.00533322     0.00546690
      19      -0.00000000    -0.00000000     0.08607553     0.08778817
      20       0.00000000     0.00000000    -0.00000298    -0.00000298
      21       0.98098348     0.00000000     0.07406203    -0.07676260
      22       0.00000000     0.98098348    -0.14143653    -0.14236827
      23       0.04260688    -0.08136651     0.99165347     0.17727154
      24      -0.04435218    -0.08225806     0.17727154     0.99165347

               Column  13     Column  14     Column  15     Column  16
      13     -11.33840000
      14       0.00000000    -0.71210000
      15       0.00000000     0.00000000    -0.40690000
      16       0.00000000     0.00000000    -0.00000000    -0.40690000
      17       0.00000000     0.00000000     0.00000000     0.00000000

               Column  17     Column  18     Column  19     Column  20
      17      -0.40690000
      18       0.00000000   -20.68090000
      19       0.00000000     0.00000000    -1.25040000
      20       0.00000000     0.00000000     0.00000000    -0.61620000

               Column  21     Column  22     Column  23     Column  24
      21      -0.61620000
      22      -0.00000000    -0.61620000
      23       0.00000000     0.00000000    -0.50000000
      24       0.00000000     0.00000000     0.00000000    -0.50000000
    ==== End of matrix output ====


                         +--------------------------------+
                         ! Integrals of operator: OVERLAP !
                         +--------------------------------+

 Symmetry of operator:  A  ( 1)

               Column   1     Column   2     Column   3     Column   4
       1       1.00000000
       2       0.24836239     1.00000000
       3      -0.00000000    -0.00000000     1.00000000
       4       0.00000000    -0.00000000     0.00000000     1.00000000
       5      -0.00000000     0.00000000    -0.00000000    -0.00000000
       6       0.00000126     0.03708896    -0.00000048     0.00000022
       7       0.03664911     0.36526353    -0.00000338     0.00000155
       8       0.00000047     0.00000246     0.21189133     0.00000000
       9      -0.00000022    -0.00000113     0.00000000     0.21189133
      10      -0.06147399    -0.32256885     0.00000400    -0.00000184
      11       0.06072046     0.48453953    -0.00001972     0.39427368
      12       0.06021809     0.48250496    -0.00001933    -0.39890626

               Column   5     Column   6     Column   7     Column   8
       5       1.00000000
       6       0.06242065     1.00000000
       7       0.44403271     0.23670394     1.00000000
       8       0.00000400     0.00000000     0.00000000     1.00000000
       9      -0.00000184    -0.00000000     0.00000000     0.00000000
      10      -0.31360545    -0.00000000     0.00000000     0.00000000
      11      -0.24373936     0.00476429     0.07308063    -0.00000152
      12      -0.23363465     0.00488694     0.07467580    -0.00000153

               Column   9     Column  10     Column  11     Column  12
       9       1.00000000
      10       0.00000000     1.00000000
      11       0.03771757    -0.07202938     1.00000000
      12      -0.03934100    -0.07296405     0.14255017     1.00000000
    ==== End of matrix output ====


                        +---------------------------------+
                        ! Integrals of operator: HJPOPOVL !
                        +---------------------------------+

 Symmetry of operator:  A  ( 1)

               Column   1     Column   2     Column   3     Column   4     Column   5
       1       1.00000000     0.24836239    -0.00000000     0.00000000    -0.00000000
       2       0.24836239     1.00000000    -0.00000000    -0.00000000     0.00000000
       3      -0.00000000    -0.00000000     1.00000000     0.00000000    -0.00000000
       4       0.00000000    -0.00000000     0.00000000     1.00000000    -0.00000000
       5      -0.00000000     0.00000000    -0.00000000    -0.00000000     1.00000000
       6       0.00000088     0.00232256    -0.00000004     0.00000002     0.00549722
       7       0.06732748     0.27953313    -0.00000304     0.00000139     0.39851106
       8       0.00000085     0.00000176     0.17389407     0.00000000     0.00000341
       9      -0.00000039    -0.00000081     0.00000000     0.17389407    -0.00000157
      10      -0.11102238    -0.23146581     0.00000341    -0.00000157    -0.27426135
      11       0.11376428     0.46129579    -0.00001930     0.38588027    -0.23855057
      12       0.11284693     0.45950799    -0.00001892    -0.39050131    -0.22871197

               Column   6     Column   7     Column   8     Column   9     Column  10
       1       0.00000163     0.00597075     0.00000009    -0.00000004    -0.01192561
       2       0.07185536     0.45099393     0.00000315    -0.00000145    -0.41367189
       3      -0.00000091    -0.00000373     0.24988859     0.00000000     0.00000459
       4       0.00000042     0.00000171     0.00000000     0.24988859    -0.00000211
       5       0.11934409     0.48955435     0.00000459    -0.00000211    -0.35294956
       6       1.00000000     0.23670394     0.00000000    -0.00000000    -0.00000000
       7       0.23670394     1.00000000     0.00000000     0.00000000     0.00000000
       8       0.00000000     0.00000000     1.00000000     0.00000000     0.00000000
       9      -0.00000000     0.00000000     0.00000000     1.00000000     0.00000000
      10      -0.00000000     0.00000000     0.00000000     0.00000000     1.00000000
      11       0.00934004     0.09714492    -0.00000199     0.04941338    -0.09436492
      12       0.00958028     0.09914754    -0.00000200    -0.05145328    -0.09542816

               Column  11     Column  12
       1       0.00767664     0.00758925
       2       0.50778327     0.50550193
       3      -0.00002014    -0.00001974
       4       0.40266708    -0.40731121
       5      -0.24892815    -0.23855733
       6       0.00018853     0.00019360
       7       0.04901635     0.05020405
       8      -0.00000105    -0.00000106
       9       0.02602175    -0.02722872
      10      -0.04969384    -0.05049994
      11       1.00000000     0.14255017
      12       0.14255017     1.00000000
    ==== End of matrix output ====


                         +--------------------------------+
                         ! Integrals of operator: XDIPLEN !
                         +--------------------------------+

 Symmetry of operator:  A  ( 1)

               Column   1     Column   2     Column   3     Column   4
       1       0.00001518
       2       0.00000377     0.00001518
       3       0.07185549     0.83874358     0.00001518
       4       0.00000000    -0.00000000    -0.00000000     0.00001518
       5      -0.00000000     0.00000000     0.00000000    -0.00000000
       6       0.00000000    -0.00000006     0.00160215    -0.00000000
       7       0.00000050     0.00000162     0.21244974     0.00000000
       8       0.00290433     0.24764706     0.00000038     0.00000100
       9      -0.00000000    -0.00000000    -0.00000070     0.00000104
      10      -0.00000083    -0.00000130    -0.19869508    -0.00000000
      11       0.00000058    -0.00001512     0.34891284    -0.00001184
      12       0.00000058    -0.00001473     0.34738902     0.00001172

               Column   5     Column   6     Column   7     Column   8
       5       0.00001518
       6      -0.00000009    -0.00000223
       7       0.00000248    -0.00000053    -0.00000223
       8       0.28552806     0.05079193     0.64117284    -0.00000223
       9      -0.00000000     0.00000000    -0.00000000     0.00000000
      10      -0.00000169     0.00000000    -0.00000000     0.00000000
      11       0.00000732    -0.00000002    -0.00000191     0.05052186
      12       0.00000686    -0.00000002    -0.00000192     0.05158660

               Column   9     Column  10     Column  11     Column  12
       9      -0.00000223
      10      -0.00000000    -0.00000223
      11      -0.00000101     0.00000193    -0.00007333
      12       0.00000104     0.00000193    -0.00001037    -0.00007209
    ==== End of matrix output ====


                         +--------------------------------+
                         ! Integrals of operator: YDIPLEN !
                         +--------------------------------+

 Symmetry of operator:  A  ( 1)

               Column   1     Column   2     Column   3     Column   4
       1       0.00105028
       2       0.00026085     0.00105028
       3      -0.00000000    -0.00000000     0.00105028
       4       0.07185549     0.83874358    -0.00000000     0.00105028
       5      -0.00000000     0.00000000    -0.00000000     0.00000000
       6       0.00000000     0.00003924    -0.00000000     0.00160215
       7       0.00003852     0.00038543    -0.00000000     0.21244974
       8       0.00000000     0.00000000     0.00022354     0.00000151
       9       0.00290433     0.24764705    -0.00000217     0.00022385
      10      -0.00006461    -0.00034044     0.00000000    -0.19869509
      11       0.00685550     0.44975824    -0.00001784     0.70557720
      12      -0.00677032    -0.45466099     0.00001775     0.71372421

               Column   5     Column   6     Column   7     Column   8
       5       0.00105028
       6       0.00006604     0.00105827
       7       0.00046831     0.00025050     0.00105827
       8       0.00000000     0.00000000     0.00000000     0.00105827
       9       0.28552805     0.05079193     0.64117284     0.00000000
      10      -0.00033078    -0.00000000     0.00000000     0.00000000
      11      -0.22048934     0.00017184     0.04344321    -0.00000093
      12       0.21455816    -0.00016915    -0.04512628     0.00000095

               Column   9     Column  10     Column  11     Column  12
       9       0.00105827
      10       0.00000000     0.00105827
      11       0.07358381    -0.04404149     1.77050338
      12       0.07606256     0.04539451    -0.00208843    -1.79980438
    ==== End of matrix output ====


                         +--------------------------------+
                         ! Integrals of operator: ZDIPLEN !
                         +--------------------------------+

 Symmetry of operator:  A  ( 1)

               Column   1     Column   2     Column   3     Column   4
       1      -1.14582446
       2      -0.28457970    -1.14582446
       3       0.00000000     0.00000000    -1.14582446
       4      -0.00000000     0.00000000    -0.00000000    -1.14582446
       5       0.07185549     0.83874358    -0.00000000    -0.00000000
       6       0.00000042     0.03960604    -0.00000049     0.00000023
       7      -0.03517114     0.09678743    -0.00000039     0.00000018
       8      -0.00000043     0.00000079     0.04273779     0.00000000
       9       0.00000020    -0.00000036     0.00000000     0.04273779
      10       0.05971628     0.14458398    -0.00000151     0.00000070
      11      -0.07377362    -0.83292247     0.00003362    -0.67200176
      12      -0.07300170    -0.81945232     0.00003256     0.67188009

               Column   5     Column   6     Column   7     Column   8
       5      -1.14582446
       6       0.06644414     1.13941835
       7       0.26304148     0.26970481     1.13941835
       8       0.00000217     0.00000000     0.00000000     1.13941835
       9      -0.00000100    -0.00000000     0.00000000     0.00000000
      10       0.04288205     0.05079193     0.64117284     0.00000000
      11       0.76434327     0.00510998     0.00045345     0.00000004
      12       0.74090119     0.00524496     0.00124665     0.00000003

               Column   9     Column  10     Column  11     Column  12
       9       1.13941835
      10       0.00000000     1.13941835
      11      -0.00098917     0.05241089    -2.23969756
      12       0.00064587     0.05278446    -0.31647999    -2.20056359
    ==== End of matrix output ====


                        +---------------------------------+
                        ! Integrals of operator: XXQUADRU !
                        +---------------------------------+

 Symmetry of operator:  A  ( 1)

               Column   1     Column   2     Column   3     Column   4
       1       0.34376124
       2       0.09469631     0.74890389
       3      -0.00000000    -0.00000000     0.58242380
       4       0.00003773     0.00044046    -0.00000000     0.83661891
       5      -0.04116689    -0.48052645     0.00000000     0.00000000
       6       0.00000007     0.01164575    -0.00000014     0.00000091
       7       0.01033365     0.13722761    -0.00000110     0.00011251
       8       0.00000013     0.00000083     0.06635382     0.00000000
       9       0.00000147     0.00013034    -0.00000000     0.12109523
      10      -0.01769359    -0.05836798     0.00000072    -0.00010508
      11       0.02579085     0.68628149    -0.00002553     0.63554874
      12       0.02547904     0.67831176    -0.00002483    -0.63881981

               Column   5     Column   6     Column   7     Column   8
       5       0.83661891
       6       0.01947437     0.33307925
       7       0.14837468     0.08375873     0.57040099
       8       0.00000109     0.00000000     0.00000000     0.47311416
       9       0.00015018     0.00002688     0.00033927     0.00000000
      10       0.02511193     0.02893663     0.36528205     0.00000000
      11      -0.59267839     0.00151044     0.03984756    -0.00000083
      12      -0.57327942     0.00155103     0.04089877    -0.00000083

               Column   9     Column  10     Column  11     Column  12
       9       0.62165949
      10       0.00000000     0.62165949
      11       0.03310067    -0.03437865     2.36249396
      12      -0.03451602    -0.03467664     0.26764850     2.34520611
    ==== End of matrix output ====


                        +---------------------------------+
                        ! Integrals of operator: XYQUADRU !
                        +---------------------------------+

 Symmetry of operator:  A  ( 1)

               Column   1     Column   2     Column   3     Column   4
       1      -0.00000000
       2      -0.00000000    -0.00000000
       3      -0.00001887    -0.00022023    -0.00000000
       4      -0.00000027    -0.00000318    -0.12709755    -0.00000000
       5       0.00000000    -0.00000000    -0.00000000    -0.00000000
       6      -0.00000000     0.00000000    -0.00000042     0.00000000
       7      -0.00000000    -0.00000000    -0.00005600    -0.00000033
       8      -0.00000076    -0.00006536    -0.00000000    -0.02737070
       9      -0.00000001    -0.00000021    -0.02737070    -0.00000000
      10       0.00000000     0.00000000     0.00005237     0.00000032
      11      -0.00000001     0.00000418    -0.06254224     0.00000515
      12       0.00000001    -0.00000414     0.06317841     0.00000512

               Column   5     Column   6     Column   7     Column   8
       5      -0.00000000
       6       0.00000000     0.00000000
       7      -0.00000000     0.00000000     0.00000000
       8      -0.00007534    -0.00001344    -0.00016963     0.00000000
       9      -0.00000028     0.00000003     0.00000036    -0.07427267
      10       0.00000000    -0.00000000     0.00000000    -0.00000000
      11      -0.00000207     0.00000000     0.00000033    -0.00627143
      12       0.00000198    -0.00000000    -0.00000034     0.00649699

               Column   9     Column  10     Column  11     Column  12
       9       0.00000000
      10       0.00000000     0.00000000
      11       0.00000047    -0.00000037     0.00003246
      12       0.00000048     0.00000038    -0.00000003    -0.00003244
    ==== End of matrix output ====


                        +---------------------------------+
                        ! Integrals of operator: XZQUADRU !
                        +---------------------------------+

 Symmetry of operator:  A  ( 1)

               Column   1     Column   2     Column   3     Column   4
       1       0.00000435
       2       0.00000108     0.00000435
       3       0.02058344     0.24026323     0.00000435
       4       0.00000000    -0.00000000    -0.00000000     0.00000435
       5      -0.00000027    -0.00000318    -0.12709755     0.00000000
       6      -0.00000000     0.00000002    -0.00040747     0.00000000
       7       0.00000012    -0.00000005    -0.00211688     0.00000000
       8       0.00063752    -0.02501189     0.00000020    -0.00000008
       9      -0.00000000     0.00000000     0.00000000     0.00000002
      10      -0.00000020    -0.00000017    -0.02680901    -0.00000000
      11       0.00000017    -0.00000691     0.13855510    -0.00000546
      12       0.00000017    -0.00000665     0.13656797     0.00000533

               Column   5     Column   6     Column   7     Column   8
       5       0.00000435
       6       0.00000002     0.00000063
       7      -0.00000027     0.00000015     0.00000063
       8      -0.05122556    -0.01446831    -0.18264103     0.00000063
       9       0.00000000    -0.00000000     0.00000000    -0.00000000
      10      -0.00000001     0.00000003     0.00000036    -0.07427267
      11       0.00000517     0.00000000    -0.00000009    -0.00244033
      12       0.00000487     0.00000000    -0.00000008    -0.00261968

               Column   9     Column  10     Column  11     Column  12
       9       0.00000063
      10       0.00000000     0.00000063
      11      -0.00000008     0.00000043    -0.00004106
      12       0.00000008     0.00000043    -0.00000575    -0.00003966
    ==== End of matrix output ====


                        +---------------------------------+
                        ! Integrals of operator: YYQUADRU !
                        +---------------------------------+

 Symmetry of operator:  A  ( 1)

               Column   1     Column   2     Column   3     Column   4
       1       0.34376097
       2       0.09469624     0.74890362
       3       0.00000055     0.00000637     0.83661863
       4       0.00000000    -0.00000000    -0.00000000     0.58242353
       5      -0.04116689    -0.48052645     0.00000000     0.00000000
       6       0.00000007     0.01164574    -0.00000014     0.00000007
       7       0.01033364     0.13722751    -0.00000044     0.00000050
       8       0.00000014     0.00000124     0.12109517     0.00000000
       9      -0.00000006    -0.00000038     0.00000000     0.06635377
      10      -0.01769358    -0.05836789     0.00000009    -0.00000033
      11       0.02546989     0.56853092    -0.00002443     0.41637424
      12       0.02515851     0.55740289    -0.00002357    -0.41428074

               Column   5     Column   6     Column   7     Column   8
       5       0.83661863
       6       0.01947435     0.33307897
       7       0.14837456     0.08375866     0.57040071
       8       0.00000165    -0.00000006    -0.00000071     0.62165921
       9      -0.00000050    -0.00000000     0.00000000    -0.00000000
      10       0.02511202     0.02893663     0.36528205    -0.00000000
      11      -0.53451209     0.00150850     0.03221655    -0.00000120
      12      -0.51577525     0.00154915     0.03282431    -0.00000121

               Column   9     Column  10     Column  11     Column  12
       9       0.47311388
      10       0.00000000     0.62165921
      11       0.01606205    -0.02579310     1.57882341
      12      -0.01665849    -0.02565641     0.24740379     1.53538216
    ==== End of matrix output ====


                        +---------------------------------+
                        ! Integrals of operator: YZQUADRU !
                        +---------------------------------+

 Symmetry of operator:  A  ( 1)

               Column   1     Column   2     Column   3     Column   4
       1       0.00030086
       2       0.00007472     0.00030086
       3      -0.00000000    -0.00000000     0.00030086
       4       0.02058344     0.24026323    -0.00000000     0.00030086
       5      -0.00001887    -0.00022023     0.00000000    -0.12709755
       6      -0.00000000    -0.00001048     0.00000000    -0.00040747
       7       0.00000924    -0.00002556     0.00000000    -0.00211688
       8       0.00000000    -0.00000000    -0.00001131    -0.00000000
       9       0.00063752    -0.02501189     0.00000018    -0.00001139
      10      -0.00001569    -0.00003814     0.00000000    -0.02680901
      11       0.00216110     0.20155621    -0.00000802     0.29883219
      12      -0.00212817    -0.20112523     0.00000787     0.29906744

               Column   5     Column   6     Column   7     Column   8
       5       0.00030086
       6      -0.00001757    -0.00030145
       7      -0.00006940    -0.00007136    -0.00030145
       8      -0.00000000     0.00000000     0.00000000    -0.00030145
       9      -0.05122556    -0.01446831    -0.18264103     0.00000000
      10      -0.00001133    -0.00001344    -0.00016963     0.00000000
      11      -0.16162529    -0.00004533     0.00217601    -0.00000008
      12       0.15835242     0.00004461    -0.00214307     0.00000008

               Column   9     Column  10     Column  11     Column  12
       9      -0.00030145
      10      -0.07427267    -0.00030145
      11      -0.00043573    -0.01009962     0.99134802
      12      -0.00055953     0.01031786    -0.00093733    -0.99014600
    ==== End of matrix output ====


                        +---------------------------------+
                        ! Integrals of operator: ZZQUADRU !
                        +---------------------------------+

 Symmetry of operator:  A  ( 1)

               Column   1     Column   2     Column   3     Column   4
       1       0.01553282
       2       0.01317671     0.42067547
       3       0.00000055     0.00000637     0.50839049
       4       0.00003773     0.00044046    -0.00000000     0.50839049
       5      -0.00000000     0.00000000     0.00000000     0.00000000
       6       0.00000003     0.00104758    -0.00000001     0.00000085
       7       0.00179020     0.12306466    -0.00000031     0.00011245
       8       0.00000004     0.00000111     0.10948287     0.00000000
       9       0.00000152     0.00013040    -0.00000000     0.10948287
      10      -0.00292968    -0.09106312     0.00000024    -0.00010515
      11       0.00333393     0.32321923    -0.00001455     0.34407576
      12       0.00330959     0.32565197    -0.00001439    -0.35107833

               Column   5     Column   6     Column   7     Column   8
       5       0.25419538
       6       0.00173285     0.00851070
       7       0.12594894     0.00693208     0.24583245
       8       0.00000143    -0.00000006    -0.00000071     0.29709095
       9       0.00015028     0.00002688     0.00033927    -0.00000000
      10      -0.06021691    -0.00000000     0.00000000    -0.00000000
      11      -0.13538006     0.00013883     0.03556262    -0.00000124
      12      -0.13161671     0.00014229     0.03656961    -0.00000126

               Column   9     Column  10     Column  11     Column  12
       9       0.29709095
      10       0.00000000     0.14854561
      11       0.02955475    -0.03248766     1.10843268
      12      -0.03087881    -0.03317022     0.09198935     1.13458608
    ==== End of matrix output ====


                        +---------------------------------+
                        ! Integrals of operator: KINENERG !
                        +---------------------------------+

 Symmetry of operator:  A  ( 1)

               Column   1     Column   2     Column   3     Column   4
       1      15.89112169
       2      -0.08589001     0.47224997
       3       0.00000000    -0.00000000     1.47772808
       4       0.00000000    -0.00000000     0.00000000     1.47772808
       5      -0.00000000     0.00000000    -0.00000000    -0.00000000
       6      -0.00006024    -0.00512693     0.00000002    -0.00000001
       7      -0.01923819     0.06266315    -0.00000171     0.00000078
       8      -0.00000017     0.00000128     0.09924176     0.00000000
       9       0.00000008    -0.00000059     0.00000000     0.09924176
      10       0.02261102    -0.16764141     0.00000381    -0.00000175
      11      -0.01088162     0.10336098    -0.00001083     0.21651600
      12      -0.01098837     0.10222604    -0.00001055    -0.21778588

               Column   5     Column   6     Column   7     Column   8
       5       1.47772808
       6      -0.00232805    29.00319995
       7       0.22404933    -0.16801094     0.80812795
       8       0.00000381     0.00000000     0.00000000     2.52873120
       9      -0.00000175     0.00000000     0.00000000     0.00000000
      10      -0.40161563    -0.00000000     0.00000000     0.00000000
      11      -0.13384984    -0.00169404    -0.01749037     0.00000013
      12      -0.12755460    -0.00171086    -0.01759638     0.00000012

               Column   9     Column  10     Column  11     Column  12
       9       2.52873120
      10       0.00000000     2.52873120
      11      -0.00320182     0.00611452     0.76003186
      12       0.00318474     0.00590661    -0.00835623     0.76003186
    ==== End of matrix output ====

 Threshold for neglecting two-electron integrals:  1.00D-12
 HERMIT - Number of two-electron integrals written:        2772 ( 90.0% )
 HERMIT - Megabytes written:                              0.034

  Total CPU  time used in HERMIT:   0.01 seconds
  Total wall time used in HERMIT:   0.02 seconds


                        .----------------------------------.
                        | End of Integral Section (HERMIT) |
                        `----------------------------------'



                   .--------------------------------------------.
                   | Starting in Wave Function Section (SIRIUS) |
                   `--------------------------------------------'


 *** Output from Huckel module :

     Using EWMO model:          T
     Using EHT  model:          F
     Number of Huckel orbitals each symmetry:   12

 EWMO - Energy Weighted Maximum Overlap - is a Huckel type method,
        which normally is better than Extended Huckel Theory.
 Reference: Linderberg and Ohrn, Propagators in Quantum Chemistry (Wiley, 1973)

 Huckel EWMO eigenvalues for symmetry :  1
          -20.684762     -11.351957      -1.632119      -1.046130      -0.813248
           -0.702067      -0.605910      -0.491826      -0.321033      -0.161573
           -0.131670      -0.108806

 Huckel EWMO eigenvectors for symmetry :  1

               Column   1     Column   2     Column   3     Column   4     Column   5
       1      -0.00019527    -0.99874933     0.06547568     0.04159450    -0.00008719
       2      -0.00153725    -0.00053046    -0.33709240    -0.36501885     0.00191890
       3       0.00000001     0.00000001     0.00000272     0.00000788    -0.00000011
       4       0.00000006     0.00000040     0.00039600     0.00045445     0.41779860
       5      -0.00153375    -0.00006388    -0.09261097     0.23162015    -0.00151279
       6      -0.99981054     0.00045967     0.02549039     0.00236037     0.00009500
       7      -0.00009083    -0.00546072    -0.66510162     0.55420556     0.00202368
       8      -0.00000000    -0.00000004     0.00000021     0.00000587    -0.00000009
       9       0.00000003     0.00000049     0.00033065     0.00099103     0.55696097
      10       0.00002980     0.00506042     0.10954689     0.25536677     0.00014913
      11      -0.00021112    -0.00352274    -0.12038140    -0.26839035     0.27169338
      12      -0.00021538    -0.00350023    -0.12125685    -0.26576702    -0.27347953

               Column   6     Column   7     Column   8     Column   9     Column  10
       1       0.00000134    -0.03304371     0.00038046     0.00000412     0.13918206
       2      -0.00001576    -0.02002632     0.00059526     0.00004655     1.15378248
       3      -0.36139788    -0.00000672     0.00000009     0.99087981    -0.00002156
       4      -0.00000007    -0.00028897    -0.33613540     0.00000014     0.02144212
       5      -0.00000634     0.34462550    -0.00141838    -0.00002113     0.96968496
       6       0.00000087    -0.02263188    -0.00004251     0.00000049    -0.12214473
       7       0.00001455    -0.21084778    -0.00195888    -0.00000072    -1.03286020
       8      -0.82456285    -0.00003249    -0.00000001    -0.65768330    -0.00000188
       9      -0.00000022     0.00615896     0.84632802    -0.00000017    -0.00685261
      10       0.00002673    -0.83504709     0.00759365     0.00001077     0.80806179
      11       0.00000675    -0.22208683    -0.38112569    -0.00001770    -0.16463030
      12       0.00000662    -0.21443526     0.38893893    -0.00001752    -0.13823526

               Column  11     Column  12
       1       0.12987422    -0.00159992
       2       1.14243814    -0.01289611
       3      -0.00006888     0.00000206
       4      -0.04060507    -1.38621602
       5      -0.92448005     0.05312344
       6       0.03740654    -0.00373587
       7       0.23677454    -0.02626999
       8       0.00002005    -0.00000081
       9       0.00833545     0.32657701
      10      -0.01954206     0.01351008
      11      -0.92789299     1.05779714
      12      -0.97168161    -1.01221920
    ==== End of matrix output ====

 **********************************************************************
 *SIRIUS* a direct, restricted step, second order MCSCF program       *
 **********************************************************************

 
     Date and time (Linux)  : Wed Sep 21 07:21:33 2016
     Host name              : olav-ThinkPad-W540                      

 Title lines from ".mol" input file:
     CH2O                                                                    
     ------------------------                                                

 Print level on unit LUPRI =   2 is   0
 Print level on unit LUW4  =   2 is   5

@    MC-SCF optimization.

@    Multi-configurational response calculation.
@              Type: complete active space calculation (CAS).

@    This is a combination run starting with
@              a restricted, closed shell Hartree-Fock calculation
@              an MP2 calculation


 Initial molecular orbitals are obtained according to
 ".MOSTART EWMO  " input option

     Wave function specification
     ============================
@    Wave function type        --- MC-SCF ---
@    Number of closed shell electrons          14
@    Number of electrons in active shells       2
@    Total charge of the molecule               0

@    Spin multiplicity and 2 M_S                1         0
@    Total number of symmetries                 1 (point group: C1 )
@    Reference state symmetry                   1 (irrep name : A  )

     Orbital specifications
     ======================
@    Abelian symmetry species          All |    1
@                                          |  A  
                                       --- |  ---
@    Inactive orbitals                   7 |    7
@    Active orbitals                     2 |    2
@    Secondary orbitals                  3 |    3
@    Total number of orbitals           12 |   12
@    Number of basis functions          12 |   12

      -- Initial occupation of symmetries is determined from total charge (only one symmetry!)
      -- Initial occupation of symmetries is :
@    Occupied SCF orbitals               8 |    8

     Optimization information
     ========================
@    Number of determinants                   4
@    Number of orbital rotations             41
     ------------------------------------------
@    Total number of variables               45

     Maximum number of macro iterations      25
     Maximum number of micro iterations     600
     Threshold for MCSCF gradient      1.00D-05
     Number of initial trial vectors          1
     Number of initial CI iterations          3
     Number of simultaneous trial vectors     1

@    This calculation converges to the lowest state for the specified symmetry and spin species.

     Maximum number of NEO/NR iterations  24
* Read MO coefficients from SIRIUS.RST with label "NEWORB  " and header info: 21Sep16  REORTHO 


 ***********************************************
 ***** DIIS acceleration of SCF iterations *****
 ***********************************************

 C1-DIIS algorithm; max error vectors =    8
 -----------------------------------------------------------------------------

 *** DIIS iteration number    1
     (Precalculated two-electron integrals are transformed to P-supermatrix elements.
      Threshold for discarding integrals :  1.00D-12 )

 ITDIIS, energy, error norm, change in energy, scr.thr., difden:
@ DIIS iter.   1    -112.128425712        1.63457D+00   -1.12D+02  -20    T

 DIIS C vector; C2DIIS = F, LAMBDA = -2.67D+00
    1.000000
* Read MO coefficients from SIRIUS.RST with label "NEWORB  " and header info: 21Sep16  DIIS   1
      Virial theorem: -V/T =      2.002358
@      MULPOP C       1.10; O      -0.82; H      -0.14; H      -0.14; 
   1  Level shift: doubly occupied orbital energies shifted by -2.00D-01
 Time used in FCKEIG, thr_jaco:   0.00D+00  0.00D+00  7.22D-04
 CPU and wall times used in FCKEIG, THR_FCKEIG:   0.00D+00  0.00D+00  1.63D-02
 -----------------------------------------------------------------------------

 *** DIIS iteration number    2

 ITDIIS, energy, error norm, change in energy, scr.thr., difden:
@ DIIS iter.   2    -112.330919201        6.12552D-01   -2.02D-01  -20    T

 DIIS C vector; C2DIIS = F, LAMBDA = -7.87D-02
    0.252713    0.747287
* Read MO coefficients from SIRIUS.RST with label "NEWORB  " and header info: 21Sep16  DIIS   2
      Virial theorem: -V/T =      2.010943
@      MULPOP C      -0.21; O       0.07; H       0.07; H       0.07; 
   2  Level shift: doubly occupied orbital energies shifted by -1.00D-01
 Time used in FCKEIG, thr_jaco:   0.00D+00  0.00D+00  2.71D-04
 CPU and wall times used in FCKEIG, THR_FCKEIG:   0.00D+00  0.00D+00  6.13D-03
 -----------------------------------------------------------------------------

 *** DIIS iteration number    3

 ITDIIS, energy, error norm, change in energy, scr.thr., difden:
@ DIIS iter.   3    -112.353171777        8.27640D-02   -2.23D-02  -20    T

 DIIS C vector; C2DIIS = F, LAMBDA = -1.08D-03
   -0.033692   -0.217615    1.251307
* Read MO coefficients from SIRIUS.RST with label "NEWORB  " and header info: 21Sep16  DIIS   3
      Virial theorem: -V/T =      2.009040
@      MULPOP C       0.05; O      -0.17; H       0.06; H       0.06; 
   3  Level shift: doubly occupied orbital energies shifted by -2.50D-02
 Time used in FCKEIG, thr_jaco:   0.00D+00  0.00D+00  3.66D-05
 CPU and wall times used in FCKEIG, THR_FCKEIG:   0.00D+00  0.00D+00  8.28D-04
 -----------------------------------------------------------------------------

 *** DIIS iteration number    4

 ITDIIS, energy, error norm, change in energy, scr.thr., difden:
@ DIIS iter.   4    -112.353664368        1.58081D-02   -4.93D-04  -20    T

 DIIS C vector; C2DIIS = F, LAMBDA = -5.88D-05
    0.006633    0.020162   -0.266564    1.239769
* Read MO coefficients from SIRIUS.RST with label "NEWORB  " and header info: 21Sep16  DIIS   4
      Virial theorem: -V/T =      2.008754
@      MULPOP C       0.07; O      -0.19; H       0.06; H       0.06; 
 Time used in FCKEIG, thr_jaco:   0.00D+00  0.00D+00  6.99D-06
 CPU and wall times used in FCKEIG, THR_FCKEIG:   0.00D+00  0.00D+00  1.58D-04
 -----------------------------------------------------------------------------

 *** DIIS iteration number    5

 ITDIIS, energy, error norm, change in energy, scr.thr., difden:
@ DIIS iter.   5    -112.353693361        4.66306D-03   -2.90D-05  -20    T

 DIIS C vector; C2DIIS = F, LAMBDA = -2.50D-06
   -0.002619   -0.011967    0.146016   -0.919142    1.787712
* Read MO coefficients from SIRIUS.RST with label "NEWORB  " and header info: 21Sep16  DIIS   5
      Virial theorem: -V/T =      2.008735
@      MULPOP C       0.08; O      -0.19; H       0.06; H       0.06; 
 Time used in FCKEIG, thr_jaco:   0.00D+00  0.00D+00  2.06D-06
 CPU and wall times used in FCKEIG, THR_FCKEIG:   0.00D+00  0.00D+00  4.66D-05
 -----------------------------------------------------------------------------

 *** DIIS iteration number    6

 ITDIIS, energy, error norm, change in energy, scr.thr., difden:
@ DIIS iter.   6    -112.353697458        5.84687D-04   -4.10D-06  -20    T

 DIIS C vector; C2DIIS = F, LAMBDA = -4.52D-08
    0.000730    0.002778   -0.039829    0.281470   -0.635988    1.390839
* Read MO coefficients from SIRIUS.RST with label "NEWORB  " and header info: 21Sep16  DIIS   6
      Virial theorem: -V/T =      2.008745
@      MULPOP C       0.08; O      -0.19; H       0.06; H       0.06; 
 Time used in FCKEIG, thr_jaco:   0.00D+00  0.00D+00  2.58D-07
 CPU and wall times used in FCKEIG, THR_FCKEIG:   0.00D+00  0.00D+00  5.85D-06
 -----------------------------------------------------------------------------

 *** DIIS iteration number    7

 ITDIIS, energy, error norm, change in energy, scr.thr., difden:
@ DIIS iter.   7    -112.353697509        6.18022D-05   -5.10D-08  -20    T

 DIIS C vector; C2DIIS = F, LAMBDA = -4.83D-10
    0.000005    0.000059    0.000239   -0.010331    0.039267   -0.208463    1.179224
* Read MO coefficients from SIRIUS.RST with label "NEWORB  " and header info: 21Sep16  DIIS   7
      Virial theorem: -V/T =      2.008746
@      MULPOP C       0.08; O      -0.19; H       0.06; H       0.06; 
 Time used in FCKEIG, thr_jaco:   0.00D+00  0.00D+00  2.73D-08
 CPU and wall times used in FCKEIG, THR_FCKEIG:   0.00D+00  0.00D+00  6.18D-07
 -----------------------------------------------------------------------------

 *** DIIS iteration number    8

 ITDIIS, energy, error norm, change in energy, scr.thr., difden:
@ DIIS iter.   8    -112.353697510        6.69017D-06   -4.74D-10  -20    T

 DIIS C vector; C2DIIS = F, LAMBDA = -4.79D-12
   -0.000003   -0.000024    0.000019    0.002812   -0.011785    0.069179   -0.444396    1.384198
* Read MO coefficients from SIRIUS.RST with label "NEWORB  " and header info: 21Sep16  DIIS   8
      Virial theorem: -V/T =      2.008746
@      MULPOP C       0.08; O      -0.19; H       0.06; H       0.06; 
 Time used in FCKEIG, thr_jaco:   0.00D+00  0.00D+00  3.54D-14
 CPU and wall times used in FCKEIG, THR_FCKEIG:   0.00D+00  0.00D+00  8.00D-13
 -----------------------------------------------------------------------------

 *** DIIS iteration number    9

 ITDIIS, energy, error norm, change in energy, scr.thr., difden:
@ DIIS iter.   9    -112.353697510        9.47010D-07   -7.19D-12  -20    T

 DIIS C vector; C2DIIS = F, LAMBDA = -5.57D-13
    1.333502    0.000003    0.000044   -0.001152    0.004186   -0.022077    0.139298   -0.453803
* Read MO coefficients from SIRIUS.RST with label "NEWORB  " and header info: 21Sep16  DIIS   9
      Virial theorem: -V/T =      2.008746
@      MULPOP C       0.08; O      -0.19; H       0.06; H       0.06; 
 Time used in FCKEIG, thr_jaco:   0.00D+00  0.00D+00  3.54D-14
 CPU and wall times used in FCKEIG, THR_FCKEIG:   0.00D+00  0.00D+00  8.00D-13
 -----------------------------------------------------------------------------

 *** DIIS iteration number   10

 ITDIIS, energy, error norm, change in energy, scr.thr., difden:
@ DIIS iter.  10    -112.353697510        4.07194D-07   -2.84D-13  -20    T

 DIIS C vector; C2DIIS = F, LAMBDA = -4.68D-14
   -0.726533    1.684598   -0.000002    0.000053   -0.000217    0.001369   -0.012454    0.053185
* Read MO coefficients from SIRIUS.RST with label "NEWORB  " and header info: 21Sep16  DIIS  10
      Virial theorem: -V/T =      2.008746
@      MULPOP C       0.08; O      -0.19; H       0.06; H       0.06; 
 Time used in FCKEIG, thr_jaco:   0.00D+00  0.00D+00  3.54D-14
 CPU and wall times used in FCKEIG, THR_FCKEIG:   0.00D+00  0.00D+00  8.00D-13
 -----------------------------------------------------------------------------

 *** DIIS iteration number   11

 ITDIIS, energy, error norm, change in energy, scr.thr., difden:
@ DIIS iter.  11    -112.353697510        8.62731D-08   -5.68D-14  -20    T

 DIIS C vector; C2DIIS = F, LAMBDA = -1.23D-15
    0.109068   -0.434353    1.326407    0.000008   -0.000023    0.000132   -0.000149   -0.001090
* Read MO coefficients from SIRIUS.RST with label "NEWORB  " and header info: 21Sep16  DIIS  11
      Virial theorem: -V/T =      2.008746
@      MULPOP C       0.08; O      -0.19; H       0.06; H       0.06; 
 Time used in FCKEIG, thr_jaco:   0.00D+00  0.00D+00  3.54D-14
 CPU and wall times used in FCKEIG, THR_FCKEIG:   0.00D+00  0.00D+00  8.00D-13
 -----------------------------------------------------------------------------

 *** DIIS iteration number   12

 ITDIIS, energy, error norm, change in energy, scr.thr., difden:
@ DIIS iter.  12    -112.353697510        2.02756D-08    1.42D-13  -20    T

 DIIS C vector; C2DIIS = F, LAMBDA = -3.20D-16
    0.005702   -0.013942   -0.026259    1.034208   -0.000003    0.000014   -0.000109    0.000389
* Read MO coefficients from SIRIUS.RST with label "NEWORB  " and header info: 21Sep16  DIIS  12
      Virial theorem: -V/T =      2.008746
@      MULPOP C       0.08; O      -0.19; H       0.06; H       0.06; 
 Time used in FCKEIG, thr_jaco:   0.00D+00  1.00D-03  3.54D-14
 CPU and wall times used in FCKEIG, THR_FCKEIG:   0.00D+00  1.00D-03  8.00D-13
 -----------------------------------------------------------------------------

 *** DIIS iteration number   13

 ITDIIS, energy, error norm, change in energy, scr.thr., difden:
@ DIIS iter.  13    -112.353697510        1.28540D-08   -5.68D-14  -20    T

 DIIS C vector; C2DIIS = F, LAMBDA = -6.47D-17
   -0.037574    0.131504   -0.327123   -0.936772    2.169066    0.000010   -0.000233    0.001122
* Read MO coefficients from SIRIUS.RST with label "NEWORB  " and header info: 21Sep16  DIIS  13
      Virial theorem: -V/T =      2.008746
@      MULPOP C       0.08; O      -0.19; H       0.06; H       0.06; 
 Time used in FCKEIG, thr_jaco:   0.00D+00  0.00D+00  3.54D-14
 CPU and wall times used in FCKEIG, THR_FCKEIG:   0.00D+00  0.00D+00  8.00D-13
 -----------------------------------------------------------------------------

 *** DIIS iteration number   14

 ITDIIS, energy, error norm, change in energy, scr.thr., difden:
@ DIIS iter.  14    -112.353697510        4.25347D-09   -2.84D-14  -20    T

 DIIS C vector; C2DIIS = F, LAMBDA = -4.26D-18
    0.006955   -0.028728    0.091981    0.082035   -0.700633    1.548490    0.000024   -0.000123
* Read MO coefficients from SIRIUS.RST with label "NEWORB  " and header info: 21Sep16  DIIS  14
      Virial theorem: -V/T =      2.008746
@      MULPOP C       0.08; O      -0.19; H       0.06; H       0.06; 
 Time used in FCKEIG, thr_jaco:   0.00D+00  0.00D+00  3.54D-14
 CPU and wall times used in FCKEIG, THR_FCKEIG:   0.00D+00  0.00D+00  8.00D-13
 -----------------------------------------------------------------------------

 *** DIIS iteration number   15

 ITDIIS, energy, error norm, change in energy, scr.thr., difden:
@ DIIS iter.  15    -112.353697510        8.47965D-10    8.53D-14  -20    T

 DIIS C vector; C2DIIS = F, LAMBDA = -1.66D-19
   -0.000921    0.005048   -0.021018    0.019728    0.157757   -0.619751    1.459159   -0.000004
* Read MO coefficients from SIRIUS.RST with label "NEWORB  " and header info: 21Sep16  DIIS  15
      Virial theorem: -V/T =      2.008746
@      MULPOP C       0.08; O      -0.19; H       0.06; H       0.06; 
 Time used in FCKEIG, thr_jaco:   0.00D+00  0.00D+00  3.54D-14
 CPU and wall times used in FCKEIG, THR_FCKEIG:   0.00D+00  0.00D+00  8.00D-13
 -----------------------------------------------------------------------------

 *** DIIS iteration number   16

 ITDIIS, energy, error norm, change in energy, scr.thr., difden:
@ DIIS iter.  16    -112.353697510        2.16326D-10   -5.68D-14  -20    T

 DIIS C vector; C2DIIS = F, LAMBDA = -9.79D-22
    0.000226   -0.001241    0.005435   -0.018288   -0.011157    0.124339   -0.425435    1.326122
* Read MO coefficients from SIRIUS.RST with label "NEWORB  " and header info: 21Sep16  DIIS  16
      Virial theorem: -V/T =      2.008746
@      MULPOP C       0.08; O      -0.19; H       0.06; H       0.06; 
 Time used in FCKEIG, thr_jaco:   0.00D+00  0.00D+00  3.54D-14
 CPU and wall times used in FCKEIG, THR_FCKEIG:   0.00D+00  0.00D+00  8.00D-13
 -----------------------------------------------------------------------------

 *** DIIS iteration number   17

 ITDIIS, energy, error norm, change in energy, scr.thr., difden:
@ DIIS iter.  17    -112.353697510        7.77102D-12    5.68D-14  -20    T

 DIIS C vector; C2DIIS = F, LAMBDA = -3.89D-23
    1.074216    0.000007   -0.000067    0.001028   -0.001320   -0.001030    0.014108   -0.086942
* Read MO coefficients from SIRIUS.RST with label "NEWORB  " and header info: 21Sep16  DIIS  17
      Virial theorem: -V/T =      2.008746
@      MULPOP C       0.08; O      -0.19; H       0.06; H       0.06; 
 Time used in FCKEIG, thr_jaco:   0.00D+00  0.00D+00  3.54D-14
 CPU and wall times used in FCKEIG, THR_FCKEIG:   0.00D+00  0.00D+00  8.00D-13
 -----------------------------------------------------------------------------

 *** DIIS iteration number   18

 ITDIIS, energy, error norm, change in energy, scr.thr., difden:
@ DIIS iter.  18    -112.353697510        1.70494D-12    0.00D+00  -20    T

 DIIS C vector; C2DIIS = F, LAMBDA = -3.18D-25
   -0.321619    1.311712    0.000001   -0.000079    0.000137   -0.000014   -0.001116    0.010979
* Read MO coefficients from SIRIUS.RST with label "NEWORB  " and header info: 21Sep16  DIIS  18
      Virial theorem: -V/T =      2.008746
@      MULPOP C       0.08; O      -0.19; H       0.06; H       0.06; 
 Time used in FCKEIG, thr_jaco:   0.00D+00  0.00D+00  3.54D-14
 CPU and wall times used in FCKEIG, THR_FCKEIG:   0.00D+00  0.00D+00  8.00D-13
 -----------------------------------------------------------------------------

 *** DIIS iteration number   19

 ITDIIS, energy, error norm, change in energy, scr.thr., difden:
@ DIIS iter.  19    -112.353697510        2.89850D-13   -5.68D-14  -20    T

@ *** DIIS converged in  19 iterations !
@     Converged SCF energy, gradient:   -112.353697509557    2.90D-13
    - total time used in SIRFCK :              0.00 seconds


 *** SCF orbital energy analysis ***

 Number of electrons :   16
 Orbital occupations :    8

 Sym       Hartree-Fock orbital energies

1 A     -20.31162719   -11.12542328    -1.34192804    -0.80369198    -0.63876325
         -0.54427391    -0.44621587    -0.35362572     0.28583524     0.62008686
          0.74574226     0.92100240

    E(LUMO) :     0.28583524 au (symmetry 1)
  - E(HOMO) :    -0.35362572 au (symmetry 1)
  ------------------------------------------
    gap     :     0.63946096 au

 --- Writing SIRIFC interface file

 CPU and wall time for SCF :       0.004       0.010


 ----- Output from SIRIUS MP2 module -----

 Reference: H.J.Aa.Jensen, P.Jorgensen, H.Agren, and J.Olsen,
            J. Chem. Phys. 88, 3834 (1988); 89, 5354 (1988)

 Checking that the closed shell orbitals are canonical Hartree-Fock orbitals

    Number of electrons  :   16
    Closed shell orbitals:    8

 Generating Fock matrix

 Hartree-Fock electronic energy:        -143.602912825773
 Hartree-Fock total      energy:        -112.353697509557

 Hartree-Fock orbital energies, symmetry 1 ( A  ),    8 occupied SCF orbitals

       -20.31162719   -11.12542328    -1.34192804    -0.80369198    -0.63876325
        -0.54427391    -0.44621587    -0.35362572     0.28583524     0.62008686
         0.74574226     0.92100240

    E(LUMO) :     0.28583524   (in symmetry 1)
  - E(HOMO) :    -0.35362572   (in symmetry 1)
  --------------------------
    gap     :     0.63946096

 Integral transformation: Total CPU and WALL times (sec)       0.004       0.001

 MP2 move   0.109316 electrons to unoccupied HF orbitals
[...]
 after   22 linear transformations is      3.90176524D+00
 INERTIA (POS,ZER,NEG) of reduced matrix is   41    0    3
 Determinant of reduced matrix is -3.24 * 10 **-11.0

 *** INFO, negative eigenvalues in reduced matrix. Symmetry  1,  triplet       F Dimension of reduced matrix =    48

 GP * SOLUTION vector at frequency     0.50000 a.u.
 after   24 linear transformations is      3.90176529D+00
 INERTIA (POS,ZER,NEG) of reduced matrix is   45    0    3
 Determinant of reduced matrix is -3.64 * 10 **-10.0

 *** INFO, negative eigenvalues in reduced matrix. Symmetry  1,  triplet       F Dimension of reduced matrix =    52

 GP * SOLUTION vector at frequency     0.50000 a.u.
 after   26 linear transformations is      3.90176529D+00
 INERTIA (POS,ZER,NEG) of reduced matrix is   49    0    3
 Determinant of reduced matrix is -7.28 * 10 ** -9.0

 *** INFO, negative eigenvalues in reduced matrix. Symmetry  1,  triplet       F Dimension of reduced matrix =    56

 GP * SOLUTION vector at frequency     0.50000 a.u.
 after   28 linear transformations is      3.90176529D+00
 INERTIA (POS,ZER,NEG) of reduced matrix is   53    0    3
 Determinant of reduced matrix is -2.33 * 10 ** -7.0

 *** INFO, negative eigenvalues in reduced matrix. Symmetry  1,  triplet       F Dimension of reduced matrix =    60

 GP * SOLUTION vector at frequency     0.50000 a.u.
 after   30 linear transformations is      3.90176529D+00
 INERTIA (POS,ZER,NEG) of reduced matrix is   57    0    3
 Determinant of reduced matrix is -3.13 * 10 ** -5.0

 *** INFO, negative eigenvalues in reduced matrix. Symmetry  1,  triplet       F Dimension of reduced matrix =    64

 GP * SOLUTION vector at frequency     0.50000 a.u.
 after   32 linear transformations is      3.90176529D+00
 INERTIA (POS,ZER,NEG) of reduced matrix is   61    0    3
 Determinant of reduced matrix is -2.85 * 10 ** -2.0

 *** INFO, negative eigenvalues in reduced matrix. Symmetry  1,  triplet       F Dimension of reduced matrix =    68

 GP * SOLUTION vector at frequency     0.50000 a.u.
 after   34 linear transformations is      3.90176529D+00
 INERTIA (POS,ZER,NEG) of reduced matrix is   65    0    3
 Determinant of reduced matrix is -4.48 * 10 **  1.0

 *** INFO, negative eigenvalues in reduced matrix. Symmetry  1,  triplet       F Dimension of reduced matrix =    72

 GP * SOLUTION vector at frequency     0.50000 a.u.
 after   36 linear transformations is      3.90176529D+00
 INERTIA (POS,ZER,NEG) of reduced matrix is   69    0    3
 Determinant of reduced matrix is -2.25 * 10 **  3.0

 *** INFO, negative eigenvalues in reduced matrix. Symmetry  1,  triplet       F Dimension of reduced matrix =    76

 GP * SOLUTION vector at frequency     0.50000 a.u.
 after   38 linear transformations is      3.90176529D+00
 INERTIA (POS,ZER,NEG) of reduced matrix is   73    0    3
 Determinant of reduced matrix is -6.19 * 10 **  5.0

 *** INFO, negative eigenvalues in reduced matrix. Symmetry  1,  triplet       F Dimension of reduced matrix =    80

 GP * SOLUTION vector at frequency     0.50000 a.u.
 after   40 linear transformations is      3.90176529D+00
 INERTIA (POS,ZER,NEG) of reduced matrix is   77    0    3
 Determinant of reduced matrix is -7.12 * 10 **  8.0

 *** INFO, negative eigenvalues in reduced matrix. Symmetry  1,  triplet       F Dimension of reduced matrix =    84

 GP * SOLUTION vector at frequency     0.50000 a.u.
 after   42 linear transformations is      3.90176529D+00
 INERTIA (POS,ZER,NEG) of reduced matrix is   81    0    3
 Determinant of reduced matrix is -1.97 * 10 ** 12.0
RSPORT:    1 out of    2 new trial vectors linear dependent

 *** INFO, negative eigenvalues in reduced matrix. Symmetry  1,  triplet       F Dimension of reduced matrix =    86

 GP * SOLUTION vector at frequency     0.50000 a.u.
 after   43 linear transformations is      3.90176529D+00
 INERTIA (POS,ZER,NEG) of reduced matrix is   83    0    3
 Determinant of reduced matrix is -1.26 * 10 ** 15.0
RSPORT:    2 out of    2 new trial vectors linear dependent

 *** MICROITERATIONS STOPPED DUE TO LINEAR DEPENDENCE BETWEEN NEW TRIAL VECTORS

 *** WARNING : REQUESTED    2 SOLUTION VECTORS NOT CONVERGED

 Convergence of RSP solution vectors, threshold = 1.00D-09
 ---------------------------------------------------------------
 (dimension of paired reduced space:   86)
 RSP solution vector no.    1; norm of residual   1.22D-06
 RSP solution vector no.    2; norm of residual   7.32D-07

 *** RSPCTL WARNING-MICROITERATIONS STOPPED BECAUSE
     OF LINEAR DEPENDENCE BETWEEN NEW TRIAL VECTORS


 RSPLR -- linear response calculation for symmetry 1  ( A  )
 RSPLR -- operator label : YDIPLEN 
 RSPLR -- operator spin  :   0
 RSPLR -- frequencies :   0.000000  0.500000
 FREQ 2    0.0000000000000000       0.50000000000000000     



 ---  SOLVING SETS OF LINEAR EQUATIONS FOR LINEAR RESPONSE PROPERTIES ---

 Operator symmetry = 1  ( A  ); triplet =   F


 *** INFO, negative eigenvalues in reduced matrix. Symmetry  1,  triplet       F Dimension of reduced matrix =    24

 GP * SOLUTION vector at frequency     0.50000 a.u.
 after   12 linear transformations is      1.03100356D+01
 INERTIA (POS,ZER,NEG) of reduced matrix is   23    0    1
 Determinant of reduced matrix is -6.08 * 10 **  4.0

 *** INFO, negative eigenvalues in reduced matrix. Symmetry  1,  triplet       F Dimension of reduced matrix =    28

 GP * SOLUTION vector at frequency     0.50000 a.u.
 after   14 linear transformations is      1.03100528D+01
 INERTIA (POS,ZER,NEG) of reduced matrix is   27    0    1
 Determinant of reduced matrix is -4.92 * 10 **  5.0

 *** INFO, negative eigenvalues in reduced matrix. Symmetry  1,  triplet       F Dimension of reduced matrix =    32

 GP * SOLUTION vector at frequency     0.50000 a.u.
 after   16 linear transformations is      1.03100543D+01
 INERTIA (POS,ZER,NEG) of reduced matrix is   31    0    1
 Determinant of reduced matrix is -4.39 * 10 **  4.0

 *** INFO, negative eigenvalues in reduced matrix. Symmetry  1,  triplet       F Dimension of reduced matrix =    36

 GP * SOLUTION vector at frequency     0.50000 a.u.
 after   18 linear transformations is      1.03100544D+01
 INERTIA (POS,ZER,NEG) of reduced matrix is   35    0    1
 Determinant of reduced matrix is -1.86 * 10 **  4.0

 *** INFO, negative eigenvalues in reduced matrix. Symmetry  1,  triplet       F Dimension of reduced matrix =    40

 GP * SOLUTION vector at frequency     0.50000 a.u.
 after   20 linear transformations is      1.03100543D+01
 INERTIA (POS,ZER,NEG) of reduced matrix is   38    0    2
 Determinant of reduced matrix is  1.73 * 10 **  4.0

 *** INFO, negative eigenvalues in reduced matrix. Symmetry  1,  triplet       F Dimension of reduced matrix =    44

 GP * SOLUTION vector at frequency     0.50000 a.u.
 after   22 linear transformations is      1.03100543D+01
 INERTIA (POS,ZER,NEG) of reduced matrix is   42    0    2
 Determinant of reduced matrix is  8.13 * 10 **  3.0

 *** INFO, negative eigenvalues in reduced matrix. Symmetry  1,  triplet       F Dimension of reduced matrix =    48

 GP * SOLUTION vector at frequency     0.50000 a.u.
 after   24 linear transformations is      1.03100544D+01
 INERTIA (POS,ZER,NEG) of reduced matrix is   46    0    2
 Determinant of reduced matrix is  5.24 * 10 **  2.0

 *** INFO, negative eigenvalues in reduced matrix. Symmetry  1,  triplet       F Dimension of reduced matrix =    52

 GP * SOLUTION vector at frequency     0.50000 a.u.
 after   26 linear transformations is      1.03100543D+01
 INERTIA (POS,ZER,NEG) of reduced matrix is   49    0    3
 Determinant of reduced matrix is -1.76 * 10 **  3.0

 *** INFO, negative eigenvalues in reduced matrix. Symmetry  1,  triplet       F Dimension of reduced matrix =    56

 GP * SOLUTION vector at frequency     0.50000 a.u.
 after   28 linear transformations is      1.03100543D+01
 INERTIA (POS,ZER,NEG) of reduced matrix is   53    0    3
 Determinant of reduced matrix is -6.89 * 10 **  2.0

 *** INFO, negative eigenvalues in reduced matrix. Symmetry  1,  triplet       F Dimension of reduced matrix =    60

 GP * SOLUTION vector at frequency     0.50000 a.u.
 after   30 linear transformations is      1.03100543D+01
 INERTIA (POS,ZER,NEG) of reduced matrix is   57    0    3
 Determinant of reduced matrix is -6.18 * 10 **  2.0

 *** INFO, negative eigenvalues in reduced matrix. Symmetry  1,  triplet       F Dimension of reduced matrix =    64

 GP * SOLUTION vector at frequency     0.50000 a.u.
 after   32 linear transformations is      1.03100543D+01
 INERTIA (POS,ZER,NEG) of reduced matrix is   61    0    3
 Determinant of reduced matrix is -1.07 * 10 **  3.0

 *** INFO, negative eigenvalues in reduced matrix. Symmetry  1,  triplet       F Dimension of reduced matrix =    68

 GP * SOLUTION vector at frequency     0.50000 a.u.
 after   34 linear transformations is      1.03100543D+01
 INERTIA (POS,ZER,NEG) of reduced matrix is   65    0    3
 Determinant of reduced matrix is -6.59 * 10 **  3.0

 *** INFO, negative eigenvalues in reduced matrix. Symmetry  1,  triplet       F Dimension of reduced matrix =    72

 GP * SOLUTION vector at frequency     0.50000 a.u.
 after   36 linear transformations is      1.03100543D+01
 INERTIA (POS,ZER,NEG) of reduced matrix is   69    0    3
 Determinant of reduced matrix is -1.09 * 10 **  6.0

 *** INFO, negative eigenvalues in reduced matrix. Symmetry  1,  triplet       F Dimension of reduced matrix =    76

 GP * SOLUTION vector at frequency     0.50000 a.u.
 after   38 linear transformations is      1.03100543D+01
 INERTIA (POS,ZER,NEG) of reduced matrix is   73    0    3
 Determinant of reduced matrix is -6.67 * 10 **  6.0

 *** INFO, negative eigenvalues in reduced matrix. Symmetry  1,  triplet       F Dimension of reduced matrix =    80

 GP * SOLUTION vector at frequency     0.50000 a.u.
 after   40 linear transformations is      1.03100543D+01
 INERTIA (POS,ZER,NEG) of reduced matrix is   77    0    3
 Determinant of reduced matrix is -1.82 * 10 **  9.0

 *** INFO, negative eigenvalues in reduced matrix. Symmetry  1,  triplet       F Dimension of reduced matrix =    84

 GP * SOLUTION vector at frequency     0.50000 a.u.
 after   42 linear transformations is      1.03100543D+01
 INERTIA (POS,ZER,NEG) of reduced matrix is   81    0    3
 Determinant of reduced matrix is -1.00 * 10 ** 13.0
RSPORT:    2 out of    2 new trial vectors linear dependent

 *** MICROITERATIONS STOPPED DUE TO LINEAR DEPENDENCE BETWEEN NEW TRIAL VECTORS

 *** WARNING : REQUESTED    2 SOLUTION VECTORS NOT CONVERGED

 Convergence of RSP solution vectors, threshold = 1.00D-09
 ---------------------------------------------------------------
 (dimension of paired reduced space:   84)
 RSP solution vector no.    1; norm of residual   1.41D-07
 RSP solution vector no.    2; norm of residual   1.57D-07

 *** RSPCTL WARNING-MICROITERATIONS STOPPED BECAUSE
     OF LINEAR DEPENDENCE BETWEEN NEW TRIAL VECTORS


 RSPLR -- linear response calculation for symmetry 1  ( A  )
 RSPLR -- operator label : ZDIPLEN 
 RSPLR -- operator spin  :   0
 RSPLR -- frequencies :   0.000000  0.500000
 FREQ 2    0.0000000000000000       0.50000000000000000     



 ---  SOLVING SETS OF LINEAR EQUATIONS FOR LINEAR RESPONSE PROPERTIES ---

 Operator symmetry = 1  ( A  ); triplet =   F


 *** INFO, negative eigenvalues in reduced matrix. Symmetry  1,  triplet       F Dimension of reduced matrix =    32

 GP * SOLUTION vector at frequency     0.50000 a.u.
 after   16 linear transformations is      2.49732751D+01
 INERTIA (POS,ZER,NEG) of reduced matrix is   31    0    1
 Determinant of reduced matrix is -2.32 * 10 **  7.0

 *** INFO, negative eigenvalues in reduced matrix. Symmetry  1,  triplet       F Dimension of reduced matrix =    36

 GP * SOLUTION vector at frequency     0.50000 a.u.
 after   18 linear transformations is      2.49732683D+01
 INERTIA (POS,ZER,NEG) of reduced matrix is   34    0    2
 Determinant of reduced matrix is  6.54 * 10 **  5.0

 *** INFO, negative eigenvalues in reduced matrix. Symmetry  1,  triplet       F Dimension of reduced matrix =    40

 GP * SOLUTION vector at frequency     0.50000 a.u.
 after   20 linear transformations is      2.49732738D+01
 INERTIA (POS,ZER,NEG) of reduced matrix is   38    0    2
 Determinant of reduced matrix is  2.49 * 10 **  5.0

 *** INFO, negative eigenvalues in reduced matrix. Symmetry  1,  triplet       F Dimension of reduced matrix =    44

 GP * SOLUTION vector at frequency     0.50000 a.u.
 after   22 linear transformations is      2.49732739D+01
 INERTIA (POS,ZER,NEG) of reduced matrix is   42    0    2
 Determinant of reduced matrix is  4.16 * 10 **  4.0

 *** INFO, negative eigenvalues in reduced matrix. Symmetry  1,  triplet       F Dimension of reduced matrix =    48

 GP * SOLUTION vector at frequency     0.50000 a.u.
 after   24 linear transformations is      2.49732739D+01
 INERTIA (POS,ZER,NEG) of reduced matrix is   46    0    2
 Determinant of reduced matrix is  3.78 * 10 **  4.0

 *** INFO, negative eigenvalues in reduced matrix. Symmetry  1,  triplet       F Dimension of reduced matrix =    52

 GP * SOLUTION vector at frequency     0.50000 a.u.
 after   26 linear transformations is      2.49732739D+01
 INERTIA (POS,ZER,NEG) of reduced matrix is   50    0    2
 Determinant of reduced matrix is  1.96 * 10 **  4.0

 *** INFO, negative eigenvalues in reduced matrix. Symmetry  1,  triplet       F Dimension of reduced matrix =    56

 GP * SOLUTION vector at frequency     0.50000 a.u.
 after   28 linear transformations is      2.49732739D+01
 INERTIA (POS,ZER,NEG) of reduced matrix is   54    0    2
 Determinant of reduced matrix is  1.31 * 10 **  3.0

 *** INFO, negative eigenvalues in reduced matrix. Symmetry  1,  triplet       F Dimension of reduced matrix =    60

 GP * SOLUTION vector at frequency     0.50000 a.u.
 after   30 linear transformations is      2.49732739D+01
 INERTIA (POS,ZER,NEG) of reduced matrix is   58    0    2
 Determinant of reduced matrix is  1.10 * 10 **  2.0

 *** INFO, negative eigenvalues in reduced matrix. Symmetry  1,  triplet       F Dimension of reduced matrix =    64

 GP * SOLUTION vector at frequency     0.50000 a.u.
 after   32 linear transformations is      2.49732739D+01
 INERTIA (POS,ZER,NEG) of reduced matrix is   61    0    3
 Determinant of reduced matrix is -7.46 * 10 **  1.0

 *** INFO, negative eigenvalues in reduced matrix. Symmetry  1,  triplet       F Dimension of reduced matrix =    68

 GP * SOLUTION vector at frequency     0.50000 a.u.
 after   34 linear transformations is      2.49732739D+01
 INERTIA (POS,ZER,NEG) of reduced matrix is   65    0    3
 Determinant of reduced matrix is -1.98 * 10 **  3.0

 *** INFO, negative eigenvalues in reduced matrix. Symmetry  1,  triplet       F Dimension of reduced matrix =    72

 GP * SOLUTION vector at frequency     0.50000 a.u.
 after   36 linear transformations is      2.49732739D+01
 INERTIA (POS,ZER,NEG) of reduced matrix is   69    0    3
 Determinant of reduced matrix is -1.35 * 10 **  5.0

 *** INFO, negative eigenvalues in reduced matrix. Symmetry  1,  triplet       F Dimension of reduced matrix =    76

 GP * SOLUTION vector at frequency     0.50000 a.u.
 after   38 linear transformations is      2.49732739D+01
 INERTIA (POS,ZER,NEG) of reduced matrix is   73    0    3
 Determinant of reduced matrix is -2.11 * 10 **  7.0

 *** INFO, negative eigenvalues in reduced matrix. Symmetry  1,  triplet       F Dimension of reduced matrix =    80

 GP * SOLUTION vector at frequency     0.50000 a.u.
 after   40 linear transformations is      2.49732739D+01
 INERTIA (POS,ZER,NEG) of reduced matrix is   77    0    3
 Determinant of reduced matrix is -2.64 * 10 **  9.0

 *** INFO, negative eigenvalues in reduced matrix. Symmetry  1,  triplet       F Dimension of reduced matrix =    84

 GP * SOLUTION vector at frequency     0.50000 a.u.
 after   42 linear transformations is      2.49732739D+01
 INERTIA (POS,ZER,NEG) of reduced matrix is   81    0    3
 Determinant of reduced matrix is -3.38 * 10 ** 13.0
RSPORT:    1 out of    2 new trial vectors linear dependent

 *** INFO, negative eigenvalues in reduced matrix. Symmetry  1,  triplet       F Dimension of reduced matrix =    86

 GP * SOLUTION vector at frequency     0.50000 a.u.
 after   43 linear transformations is      2.49732739D+01
 INERTIA (POS,ZER,NEG) of reduced matrix is   83    0    3
 Determinant of reduced matrix is -1.26 * 10 ** 15.0
RSPORT:    2 out of    2 new trial vectors linear dependent

 *** MICROITERATIONS STOPPED DUE TO LINEAR DEPENDENCE BETWEEN NEW TRIAL VECTORS

 *** WARNING : REQUESTED    2 SOLUTION VECTORS NOT CONVERGED

 Convergence of RSP solution vectors, threshold = 1.00D-09
 ---------------------------------------------------------------
 (dimension of paired reduced space:   86)
 RSP solution vector no.    1; norm of residual   6.04D-08
 RSP solution vector no.    2; norm of residual   2.26D-08

 *** RSPCTL WARNING-MICROITERATIONS STOPPED BECAUSE
     OF LINEAR DEPENDENCE BETWEEN NEW TRIAL VECTORS


           Final output of second order properties from linear response
           ------------------------------------------------------------


@ Spin symmetry of operators: singlet

 Note that minus the linear response function: - << A; B >>(omega) is printed.
 The results are of quadratic accuracy using Sellers formula.

@ FREQUENCY INDEPENDENT SECOND ORDER PROPERTIES

@ -<< XDIPLEN  ; XDIPLEN  >> =  2.580113239121D+00
@ -<< XDIPLEN  ; YDIPLEN  >> =  1.825076009295D-06
@ -<< XDIPLEN  ; ZDIPLEN  >> =  5.498473331065D-05
@ -<< YDIPLEN  ; YDIPLEN  >> =  6.138763984857D+00
@ -<< YDIPLEN  ; ZDIPLEN  >> = -2.185225382813D-02
@ -<< ZDIPLEN  ; ZDIPLEN  >> =  8.309689054578D+00

@ FREQUENCY DEPENDENT SECOND ORDER PROPERTIES WITH FREQUENCY :

@    a.u.:  5.0000000D-01
@    cm-1:  1.0973731D+05
@    eV  :  1.3605692D+01
@  kJ/mol:  1.3127498D+03
@    nm  :  9.1126706D+01

@ -<< XDIPLEN  ; XDIPLEN  >> =  3.901765287764D+00
@ -<< XDIPLEN  ; YDIPLEN  >> = -3.132015749749D-06
@ -<< XDIPLEN  ; ZDIPLEN  >> = -5.121167354184D-04
@ -<< YDIPLEN  ; YDIPLEN  >> =  1.031005434567D+01
@ -<< YDIPLEN  ; ZDIPLEN  >> =  4.338681168483D-02
@ -<< ZDIPLEN  ; ZDIPLEN  >> =  2.497327394146D+01


 Time used in linear response calculation is      0.05 CPU seconds for symmetry 1

  Total CPU  time used in RESPONSE:   0.06 seconds
  Total wall time used in RESPONSE:   0.06 seconds


                   .-------------------------------------------.
                   | End of Dynamic Property Section (RESPONS) |
                   `-------------------------------------------'

  Total CPU  time used in DALTON:   0.12 seconds
  Total wall time used in DALTON:   0.15 seconds

 
     Date and time (Linux)  : Wed Sep 21 07:21:33 2016
     Host name              : olav-ThinkPad-W540                      
  

 +---------------------------------------------------------+ 
 | List of selected calculated molecular properties (a.u.) | 
 +---------------------------------------------------------+ 

  Properties are read from unit number            4

 LR-SCF/DFT properties :
 #  1 1 <<XDIPLEN ,XDIPLEN >>( 0.000000) =      2.580113239121
 #  2 1 <<XDIPLEN ,YDIPLEN >>( 0.000000) =      0.000001825076
 #  3 1 <<XDIPLEN ,ZDIPLEN >>( 0.000000) =      0.000054984733
 #  4 1 <<YDIPLEN ,YDIPLEN >>( 0.000000) =      6.138763984857
 #  5 1 <<YDIPLEN ,ZDIPLEN >>( 0.000000) =     -0.021852253828
 #  6 1 <<ZDIPLEN ,ZDIPLEN >>( 0.000000) =      8.309689054578
 #  7 1 <<XDIPLEN ,XDIPLEN >>( 0.500000) =      3.901765287764
 #  8 1 <<XDIPLEN ,YDIPLEN >>( 0.500000) =     -0.000003132016
 #  9 1 <<XDIPLEN ,ZDIPLEN >>( 0.500000) =     -0.000512116735
 # 10 1 <<YDIPLEN ,YDIPLEN >>( 0.500000) =     10.310054345670
 # 11 1 <<YDIPLEN ,ZDIPLEN >>( 0.500000) =      0.043386811685
 # 12 1 <<ZDIPLEN ,ZDIPLEN >>( 0.500000) =     24.973273941457

 THE_END   
