[Molden Format]
[GTO]

    1 0
 s   6 1.00
      71.6168370    0.1543289700
      13.0450960    0.5353281400
       3.5305122    0.4446345400
       2.9412494    0.0000000000
       0.6834831    0.0000000000
       0.2222899    0.0000000000
 s   6 1.00
      71.6168370    0.0000000000
      13.0450960    0.0000000000
       3.5305122    0.0000000000
       2.9412494   -0.0999672300
       0.6834831    0.3995128300
       0.2222899    0.7001154700
 p   3 1.00
       2.9412494    0.1559162700
       0.6834831    0.6076837200
       0.2222899    0.3919573900

    2 0
 s   6 1.00
     130.7093200    0.1543289700
      23.8088610    0.5353281400
       6.4436083    0.4446345400
       5.0331513    0.0000000000
       1.1695961    0.0000000000
       0.3803890    0.0000000000
 s   6 1.00
     130.7093200    0.0000000000
      23.8088610    0.0000000000
       6.4436083    0.0000000000
       5.0331513   -0.0999672300
       1.1695961    0.3995128300
       0.3803890    0.7001154700
 p   3 1.00
       5.0331513    0.1559162700
       1.1695961    0.6076837200
       0.3803890    0.3919573900

    3 0
 s   3 1.00
       3.4252509    0.1543289700
       0.6239137    0.5353281400
       0.1688554    0.4446345400

    4 0
 s   3 1.00
       3.4252509    0.1543289700
       0.6239137    0.5353281400
       0.1688554    0.4446345400
[SCFCONV]
scf-first  1  THROUGH  18
     -112.1284257117
     -112.2793101893
     -112.3534211986
     -112.3536759382
     -112.3536950144
     -112.3536974230
     -112.3536975085
     -112.3536975096
     -112.3536975096
     -112.3536975096
     -112.3536975096
     -112.3536975096
     -112.3536975096
     -112.3536975096
     -112.3536975096
     -112.3536975096
     -112.3536975096
     -112.3536975096

[5D]

[MO]
Sym= A  
Ene=  -20.3116
Spin= Alpha
Occup= 2.0000
    1       -0.000527
    2        0.007376
    3       -0.000000
    4       -0.000015
    5        0.006365
    6       -0.994271
    7       -0.026097
    8       -0.000000
    9       -0.000002
   10        0.005728
   11       -0.000228
   12       -0.000261
Sym= A  
Ene=  -11.1254
Spin= Alpha
Occup= 2.0000
    1       -0.992614
    2       -0.032973
    3        0.000000
    4        0.000024
    5       -0.000818
    6       -0.000117
    7        0.005842
    8       -0.000000
    9        0.000005
   10       -0.001642
   11        0.006501
   12        0.006500
Sym= A  
Ene=   -1.3419
Spin= Alpha
Occup= 2.0000
    1        0.123834
    2       -0.277940
    3        0.000002
    4        0.000150
    5       -0.158803
    6        0.218885
    7       -0.765043
    8       -0.000001
    9        0.000036
   10        0.173191
   11       -0.031895
   12       -0.031673
Sym= A  
Ene=   -0.8037
Spin= Alpha
Occup= 2.0000
    1        0.185558
    2       -0.578391
    3        0.000012
    4       -0.001423
    5        0.222311
    6       -0.100861
    7        0.439327
    8        0.000003
    9       -0.000119
   10        0.170150
   11       -0.267025
   12       -0.261968
Sym= A  
Ene=   -0.6388
Spin= Alpha
Occup= 2.0000
    1        0.000579
    2       -0.001898
    3       -0.000000
    4        0.531995
    5       -0.004803
    6       -0.001500
    7        0.007678
    8       -0.000000
    9        0.438677
   10        0.006313
   11        0.297989
   12       -0.299643
Sym= A  
Ene=   -0.5443
Spin= Alpha
Occup= 2.0000
    1       -0.030086
    2        0.093799
    3        0.000016
    4        0.005974
    5        0.448437
    6        0.092676
    7       -0.494828
    8        0.000013
    9        0.007385
   10       -0.678849
   11       -0.161110
   12       -0.162507
Sym= A  
Ene=   -0.4462
Spin= Alpha
Occup= 2.0000
    1        0.000005
    2       -0.000022
    3       -0.610477
    4       -0.000000
    5        0.000015
    6        0.000000
    7       -0.000003
    8       -0.673172
    9        0.000000
   10       -0.000021
   11       -0.000003
   12       -0.000002
Sym= A  
Ene=   -0.3536
Spin= Alpha
Occup= 2.0000
    1       -0.000321
    2        0.002136
    3        0.000000
    4       -0.180118
    5       -0.001570
    6        0.000150
    7       -0.000769
    8       -0.000000
    9        0.872451
   10        0.004531
   11       -0.355168
   12        0.359401
Sym= A  
Ene=    0.2858
Spin= Alpha
Occup= 0.0000
    1       -0.000011
    2        0.000060
    3        0.821174
    4        0.000000
    5       -0.000028
    6        0.000001
    7       -0.000002
    8       -0.770615
    9       -0.000000
   10        0.000006
   11       -0.000033
   12       -0.000033
Sym= A  
Ene=    0.6201
Spin= Alpha
Occup= 0.0000
    1       -0.201978
    2        1.262918
    3       -0.000076
    4       -0.010269
    5       -0.491641
    6        0.021771
    7       -0.117253
    8        0.000031
    9        0.001046
   10        0.191852
   11       -0.891679
   12       -0.895245
Sym= A  
Ene=    0.7457
Spin= Alpha
Occup= 0.0000
    1        0.004629
    2       -0.031575
    3        0.000001
    4       -1.159478
    5       -0.023561
    6       -0.003695
    7        0.026059
    8       -0.000000
    9        0.318911
   10       -0.030157
   11        0.845148
   12       -0.840838
Sym= A  
Ene=    0.9210
Spin= Alpha
Occup= 0.0000
    1       -0.107205
    2        0.724738
    3       -0.000002
    4       -0.036152
    5        1.149053
    6        0.118080
    7       -0.886182
    8       -0.000011
    9        0.008526
   10        0.938963
   11        0.122705
   12        0.061169
[Atoms] AU
C          1     6         0.0000174063         0.0010502766        -1.1458244562
O          2     8         0.0000000000         0.0010582718         1.1394183506
H          3     1        -0.0000711057         1.7705033754        -2.2396975555
H          4     1        -0.0000698661        -1.7998043817        -2.2005635940
