

     ************************************************************************
     *************** Dalton - An Electronic Structure Program ***************
     ************************************************************************

    This is output from DALTON release Dalton2017.alpha (2016)
         ( Web site: http://daltonprogram.org )

   ----------------------------------------------------------------------------

    NOTE:
     
    Dalton is an experimental code for the evaluation of molecular
    properties using (MC)SCF, DFT, CI, and CC wave functions.
    The authors accept no responsibility for the performance of
    the code or for the correctness of the results.
     
    The code (in whole or part) is provided under a licence and
    is not to be reproduced for further distribution without
    the written permission of the authors or their representatives.
     
    See the home page "http://daltonprogram.org" for further information.
     
    If results obtained with this code are published,
    the appropriate citations would be both of:
     
       K. Aidas, C. Angeli, K. L. Bak, V. Bakken, R. Bast,
       L. Boman, O. Christiansen, R. Cimiraglia, S. Coriani,
       J. Cukras, P. Dahle, E. K. Dalskov, U. Ekstroem,
       T. Enevoldsen, J. J. Eriksen, P. Ettenhuber, B. Fernandez,
       L. Ferrighi, H. Fliegl, L. Frediani, K. Hald, A. Halkier,
       C. Haettig, H. Heiberg, T. Helgaker, A. C. Hennum,
       H. Hettema, E. Hjertenaes, S. Hoest, I.-M. Hoeyvik,
       M. F. Iozzi, B. Jansik, H. J. Aa. Jensen, D. Jonsson,
       P. Joergensen, M. Kaminski, J. Kauczor, S. Kirpekar,
       T. Kjaergaard, W. Klopper, S. Knecht, R. Kobayashi, H. Koch,
       J. Kongsted, A. Krapp, K. Kristensen, A. Ligabue,
       O. B. Lutnaes, J. I. Melo, K. V. Mikkelsen, R. H. Myhre,
       C. Neiss, C. B. Nielsen, P. Norman, J. Olsen,
       J. M. H. Olsen, A. Osted, M. J. Packer, F. Pawlowski,
       T. B. Pedersen, P. F. Provasi, S. Reine, Z. Rinkevicius,
       T. A. Ruden, K. Ruud, V. Rybkin, P. Salek, C. C. M. Samson,
       A. Sanchez de Meras, T. Saue, S. P. A. Sauer,
       B. Schimmelpfennig, K. Sneskov, A. H. Steindal,
       K. O. Sylvester-Hvid, P. R. Taylor, A. M. Teale,
       E. I. Tellgren, D. P. Tew, A. J. Thorvaldsen, L. Thoegersen,
       O. Vahtras, M. A. Watson, D. J. D. Wilson, M. Ziolkowski
       and H. Agren,
       "The Dalton quantum chemistry program system",
       WIREs Comput. Mol. Sci. 2014, 4:269–284 (doi: 10.1002/wcms.1172)
     
    and
     
       Dalton, a Molecular Electronic Structure Program,
       Release Dalton2017.alpha (2016), see http://daltonprogram.org
   ----------------------------------------------------------------------------

    Authors in alphabetical order (major contribution(s) in parenthesis):

  Kestutis Aidas,           Vilnius University,           Lithuania   (QM/MM)
  Celestino Angeli,         University of Ferrara,        Italy       (NEVPT2)
  Keld L. Bak,              UNI-C,                        Denmark     (AOSOPPA, non-adiabatic coupling, magnetic properties)
  Vebjoern Bakken,          University of Oslo,           Norway      (DALTON; geometry optimizer, symmetry detection)
  Radovan Bast,             UiT The Arctic U. of Norway,  Norway      (DALTON installation and execution frameworks)
  Pablo Baudin,             University of Valencia,       Spain       (Cholesky excitation energies)
  Linus Boman,              NTNU,                         Norway      (Cholesky decomposition and subsystems)
  Ove Christiansen,         Aarhus University,            Denmark     (CC module)
  Renzo Cimiraglia,         University of Ferrara,        Italy       (NEVPT2)
  Sonia Coriani,            University of Trieste,        Italy       (CC module, MCD in RESPONS)
  Janusz Cukras,            University of Trieste,        Italy       (MChD in RESPONS)
  Paal Dahle,               University of Oslo,           Norway      (Parallelization)
  Erik K. Dalskov,          UNI-C,                        Denmark     (SOPPA)
  Thomas Enevoldsen,        Univ. of Southern Denmark,    Denmark     (SOPPA)
  Janus J. Eriksen,         Aarhus University,            Denmark     (Polarizable embedding model, TDA)
  Rasmus Faber,             University of Copenhagen,     Denmark     (Vib.avg. NMR with SOPPA, parallel AO-SOPPA)
  Berta Fernandez,          U. of Santiago de Compostela, Spain       (doublet spin, ESR in RESPONS)
  Lara Ferrighi,            Aarhus University,            Denmark     (PCM Cubic response)
  Heike Fliegl,             University of Oslo,           Norway      (CCSD(R12))
  Luca Frediani,            UiT The Arctic U. of Norway,  Norway      (PCM)
  Bin Gao,                  UiT The Arctic U. of Norway,  Norway      (Gen1Int library)
  Christof Haettig,         Ruhr-University Bochum,       Germany     (CC module)
  Kasper Hald,              Aarhus University,            Denmark     (CC module)
  Asger Halkier,            Aarhus University,            Denmark     (CC module)
  Frederik Beyer Hansen,    University of Copenhagen,     Denmark     (Parallel AO-SOPPA)
  Erik D. Hedegaard,        Univ. of Southern Denmark,    Denmark     (Polarizable embedding model, QM/MM)
  Hanne Heiberg,            University of Oslo,           Norway      (geometry analysis, selected one-electron integrals)
  Trygve Helgaker,          University of Oslo,           Norway      (DALTON; ABACUS, ERI, DFT modules, London, and much more)
  Alf Christian Hennum,     University of Oslo,           Norway      (Parity violation)
  Hinne Hettema,            University of Auckland,       New Zealand (quadratic response in RESPONS; SIRIUS supersymmetry)
  Eirik Hjertenaes,         NTNU,                         Norway      (Cholesky decomposition)
  Maria Francesca Iozzi,    University of Oslo,           Norway      (RPA)
  Brano Jansik              Technical Univ. of Ostrava    Czech Rep.  (DFT cubic response)
  Hans Joergen Aa. Jensen,  Univ. of Southern Denmark,    Denmark     (DALTON; SIRIUS, RESPONS, ABACUS modules, London, and much more)
  Dan Jonsson,              UiT The Arctic U. of Norway,  Norway      (cubic response in RESPONS module)
  Poul Joergensen,          Aarhus University,            Denmark     (RESPONS, ABACUS, and CC modules)
  Maciej Kaminski,          University of Warsaw,         Poland      (CPPh in RESPONS)
  Joanna Kauczor,           Linkoeping University,        Sweden      (Complex polarization propagator (CPP) module)
  Sheela Kirpekar,          Univ. of Southern Denmark,    Denmark     (Mass-velocity & Darwin integrals)
  Wim Klopper,              KIT Karlsruhe,                Germany     (R12 code in CC, SIRIUS, and ABACUS modules)
  Stefan Knecht,            ETH Zurich,                   Switzerland (Parallel CI and MCSCF)
  Rika Kobayashi,           Australian National Univ.,    Australia   (DIIS in CC, London in MCSCF)
  Henrik Koch,              NTNU,                         Norway      (CC module, Cholesky decomposition)
  Jacob Kongsted,           Univ. of Southern Denmark,    Denmark     (Polarizable embedding model, QM/MM)
  Andrea Ligabue,           University of Modena,         Italy       (CTOCD, AOSOPPA)
  Nanna H. List             Univ. of Southern Denmark,    Denmark     (Polarizable embedding model)
  Ola B. Lutnaes,           University of Oslo,           Norway      (DFT Hessian)
  Juan I. Melo,             University of Buenos Aires,   Argentina   (LRESC, Relativistic Effects on NMR Shieldings)
  Kurt V. Mikkelsen,        University of Copenhagen,     Denmark     (MC-SCRF and QM/MM)
  Rolf H. Myhre,            NTNU,                         Norway      (Cholesky, subsystems and ECC2)
  Christian Neiss,          Univ. Erlangen-Nuernberg,     Germany     (CCSD(R12))
  Christian B. Nielsen,     University of Copenhagen,     Denmark     (QM/MM)
  Patrick Norman,           Linkoeping University,        Sweden      (Cubic response and complex frequency response in RESPONS)
  Jeppe Olsen,              Aarhus University,            Denmark     (SIRIUS CI/density modules)
  Jogvan Magnus H. Olsen,   Univ. of Southern Denmark,    Denmark     (Polarizable embedding model, QM/MM)
  Anders Osted,             Copenhagen University,        Denmark     (QM/MM)
  Martin J. Packer,         University of Sheffield,      UK          (SOPPA)
  Filip Pawlowski,          Kazimierz Wielki University,  Poland      (CC3)
  Morten N. Pedersen,       Univ. of Southern Denmark,    Denmark     (Polarizable embedding model)
  Thomas B. Pedersen,       University of Oslo,           Norway      (Cholesky decomposition)
  Patricio F. Provasi,      University of Northeastern,   Argentina   (Analysis of coupling constants in localized orbitals)
  Zilvinas Rinkevicius,     KTH Stockholm,                Sweden      (open-shell DFT, ESR)
  Elias Rudberg,            KTH Stockholm,                Sweden      (DFT grid and basis info)
  Torgeir A. Ruden,         University of Oslo,           Norway      (Numerical derivatives in ABACUS)
  Kenneth Ruud,             UiT The Arctic U. of Norway,  Norway      (DALTON; ABACUS magnetic properties and much more)
  Pawel Salek,              KTH Stockholm,                Sweden      (DALTON; DFT code)
  Claire C. M. Samson       University of Karlsruhe       Germany     (Boys localization, r12 integrals in ERI)
  Alfredo Sanchez de Meras, University of Valencia,       Spain       (CC module, Cholesky decomposition)
  Trond Saue,               Paul Sabatier University,     France      (direct Fock matrix construction)
  Stephan P. A. Sauer,      University of Copenhagen,     Denmark     (SOPPA(CCSD), SOPPA prop., AOSOPPA, vibrational g-factors)
  Bernd Schimmelpfennig,    Forschungszentrum Karlsruhe,  Germany     (AMFI module)
  Kristian Sneskov,         Aarhus University,            Denmark     (Polarizable embedding model, QM/MM)
  Arnfinn H. Steindal,      UiT The Arctic U. of Norway,  Norway      (parallel QM/MM, Polarizable embedding model)
  Casper Steinmann,         Univ. of Southern Denmark,    Denmark     (QFIT, Polarizable embedding model)
  K. O. Sylvester-Hvid,     University of Copenhagen,     Denmark     (MC-SCRF)
  Peter R. Taylor,          VLSCI/Univ. of Melbourne,     Australia   (Symmetry handling ABACUS, integral transformation)
  Andrew M. Teale,          University of Nottingham,     England     (DFT-AC, DFT-D)
  David P. Tew,             University of Bristol,        England     (CCSD(R12))
  Olav Vahtras,             KTH Stockholm,                Sweden      (triplet response, spin-orbit, ESR, TDDFT, open-shell DFT)
  David J. Wilson,          La Trobe University,          Australia   (DFT Hessian and DFT magnetizabilities)
  Hans Agren,               KTH Stockholm,                Sweden      (SIRIUS module, RESPONS, MC-SCRF solvation model)
 --------------------------------------------------------------------------------

     Date and time (Linux)  : Tue Mar 22 16:34:24 2016
     Host name              : olav-ThinkPad-W540                      

 * Work memory size             :    64000000 =  488.28 megabytes.

 * Directories for basis set searches:
   1) /home/olav/dev/dalton/basis/


Compilation information
-----------------------

 Who compiled             | olav
 Host                     | olav-ThinkPad-W540
 System                   | Linux-3.13.0-48-generic
 CMake generator          | Unix Makefiles
 Processor                | x86_64
 64-bit integers          | OFF
 MPI                      | ON
 Fortran compiler         | /usr/bin/mpif90
 Fortran compiler version | GNU Fortran (Ubuntu 5.2.1-22ubuntu2) 5.2.1 2015101
                          | 0
 C compiler               | /usr/bin/mpicc
 C compiler version       | gcc (Ubuntu 5.2.1-22ubuntu2) 5.2.1 20151010
 C++ compiler             | /usr/bin/mpicxx
 C++ compiler version     | unknown
 BLAS                     | /usr/lib/libblas.so
 LAPACK                   | /usr/lib/liblapack.so
 Static linking           | OFF
 Last Git revision        | 00e5e26091adbc76753cbb08d5b1176e5c7adfef
 Git branch               | master
 Configuration time       | 2016-03-11 12:13:52.115779

 * Sequential calculation.


   Content of the .dal input file
 ----------------------------------

**DALTON                                          
.INTEGRALS                                        
**INTEGRALS                                       
.DIPLEN                                           
.ANGLON                                           
.PROPRI                                           
**END OF DALTON INPUT                             


   Content of the .mol file
 ----------------------------

ATOMBASIS                                                                      
CH2O                                                                           
------------------------                                                       
    3              A 1.00D-12                                                  
        6.0   1    Basis=STO-3G                                                
C           -1.588367    -.770650     .029109                                  
        8.0   1    Basis=STO-3G                                                
O           -1.657083     .436069    -.009750                                  
        1.0   2    Basis=STO-3G                                                
H           -.620668   -1.294822      .054251                                  
H           -2.508043   -1.382001     .040282                                  


       *******************************************************************
       *********** Output from DALTON general input processing ***********
       *******************************************************************

 --------------------------------------------------------------------------------
   Overall default print level:    0
   Print level for DALTON.STAT:    1

    HERMIT 1- and 2-electron integral sections will be executed
    "Old" integral transformation used (limited to max 255 basis functions)
 --------------------------------------------------------------------------------


   ****************************************************************************
   *************** Output of molecule and basis set information ***************
   ****************************************************************************


    The two title cards from your ".mol" input:
    ------------------------------------------------------------------------
 1: CH2O                                                                    
 2: ------------------------                                                
    ------------------------------------------------------------------------



@ WARNING - deprecated old .mol fixed format input has been detected:
    3              A 1.00D-12                                                   
@ WARNING - this input format may not be supported in future releases.




  Coordinates are entered in Angstrom and converted to atomic units.
          - Conversion factor : 1 bohr = 0.52917721 A

  Atomic type no.    1
  --------------------
  Nuclear charge:   6.00000
  Number of symmetry independent centers:    1
  Number of basis sets to read;    2
  The basis set is "STO-3G" from the basis set library.
  Basis set file used for this atomic type with Z =   6 :
     "/home/olav/dev/dalton/basis/STO-3G"

  Atomic type no.    2
  --------------------
  Nuclear charge:   8.00000
  Number of symmetry independent centers:    1
  Number of basis sets to read;    2
  The basis set is "STO-3G" from the basis set library.
  Basis set file used for this atomic type with Z =   8 :
     "/home/olav/dev/dalton/basis/STO-3G"

  Atomic type no.    3
  --------------------
  Nuclear charge:   1.00000
  Number of symmetry independent centers:    2
  Number of basis sets to read;    2
  The basis set is "STO-3G" from the basis set library.
  Basis set file used for this atomic type with Z =   1 :
     "/home/olav/dev/dalton/basis/STO-3G"


                      SYMADD: Requested addition of symmetry
                      --------------------------------------

 Symmetry test threshold:  5.00E-06

@   The molecule is centered at center of mass and rotated
@   so principal axes of inertia are along coordinate axes.

 Symmetry class found: C(1)           

 Symmetry Independent Centres             
 ----------------------------
       8 :      0.00000000     0.00105827     1.13941835  Isotope  1
       6 :      0.00001741     0.00105028    -1.14582446  Isotope  1
       1 :     -0.00006987    -1.79980438    -2.20056359  Isotope  1
       1 :     -0.00007111     1.77050338    -2.23969756  Isotope  1

 No symmetry elements were found.


                         SYMGRP: Point group information
                         -------------------------------

@    Full point group is: C(1)           
@    Represented as:      C1 


                                 Isotopic Masses
                                 ---------------

                           C          12.000000
                           O          15.994915
                           H           1.007825
                           H           1.007825

                       Total mass:    30.010565 amu
                       Natural abundance:  98.633 %

 Center-of-mass coordinates (a.u.):    0.000002   -0.000000    0.000000


  Atoms and basis sets
  --------------------

  Number of atom types :    3
  Total number of atoms:    4

  label    atoms   charge   prim   cont     basis
  ----------------------------------------------------------------------
  C           1    6.0000    15     5      [6s3p|2s1p]                                        
  O           1    8.0000    15     5      [6s3p|2s1p]                                        
  H           2    1.0000     3     1      [3s|1s]                                            
  ----------------------------------------------------------------------
  total:      4   16.0000    36    12
  ----------------------------------------------------------------------

  Threshold for neglecting AO integrals:  1.00D-12


  Cartesian Coordinates (a.u.)
  ----------------------------

  Total number of coordinates:   12
  C       :     1  x   0.0000174063    2  y   0.0010502766    3  z  -1.1458244562
  O       :     4  x   0.0000000000    5  y   0.0010582718    6  z   1.1394183506
  H       :     7  x  -0.0000711057    8  y   1.7705033754    9  z  -2.2396975555
  H       :    10  x  -0.0000698661   11  y  -1.7998043817   12  z  -2.2005635940


   Interatomic separations (in Angstrom):
   --------------------------------------

            C           O           H           H     
            ------      ------      ------      ------
 C     :    0.000000
 O     :    1.209298    0.000000
 H     :    1.100831    2.018474    0.000000
 H     :    1.104391    2.007988    1.889439    0.000000


  Max    interatomic separation is    2.0185 Angstrom (    3.8144 Bohr)
  between atoms    3 and    2, "H     " and "O     ".

  Min HX interatomic separation is    1.1008 Angstrom (    2.0803 Bohr)

  Min YX interatomic separation is    1.2093 Angstrom (    2.2852 Bohr)


  Bond distances (Angstrom):
  --------------------------

                  atom 1     atom 2       distance
                  ------     ------       --------
  bond distance:  O          C            1.209298
  bond distance:  H          C            1.100831
  bond distance:  H          C            1.104391


  Bond angles (degrees):
  ----------------------

                  atom 1     atom 2     atom 3         angle
                  ------     ------     ------         -----
  bond angle:     O          C          H            121.724
  bond angle:     O          C          H            120.357
  bond angle:     H          C          H            117.919




 Principal moments of inertia (u*A**2) and principal axes
 --------------------------------------------------------

   IA       1.798871          0.000002    0.000000    1.000000
   IB      13.009178          0.000000    1.000000   -0.000000
   IC      14.808049          1.000000   -0.000000   -0.000002


 Rotational constants
 --------------------

@    The molecule is planar.

               A                   B                   C

         280942.3015          38847.8806          34128.6681 MHz
            9.371226            1.295826            1.138410 cm-1


@  Nuclear repulsion energy :   31.249215316217 Hartree


                     .---------------------------------------.
                     | Starting in Integral Section (HERMIT) |
                     `---------------------------------------'



 ***************************************************************************************
 ****************** Output from **INTEGRALS input processing (HERMIT) ******************
 ***************************************************************************************



    *************************************************************************
    ****************** Output from HERMIT input processing ******************
    *************************************************************************


 Default print level:        1

 * Nuclear model: Point charge

 Calculation of one- and two-electron Hamiltonian integrals.

 The following one-electron property integrals are calculated as requested:
          - overlap integrals
          - dipole length integrals
          - electronic angular momentum around the nuclei

 All one-electron property integrals are printed.

 Center of mass  (bohr):      0.000002225914     -0.000000000000      0.000000000000
 Operator center (bohr):      0.000000000000      0.000000000000      0.000000000000
 Gauge origin    (bohr):      0.000002225914     -0.000000000000      0.000000000000
 Dipole origin   (bohr):      0.000002225914     -0.000000000000      0.000000000000


     ************************************************************************
     ************************** Output from HERINT **************************
     ************************************************************************



                        +---------------------------------+
                        ! Integrals of operator: HUCKOVLP !
                        +---------------------------------+

 Symmetry of operator:  A  ( 1)

               Column   1     Column   2     Column   3     Column   4
       1       1.00000000
       2       0.24836239     1.00000000
       3      -0.00000000    -0.00000000     1.00000000
       4       0.00000000    -0.00000000     0.00000000     1.00000000
       5      -0.00000000     0.00000000    -0.00000000    -0.00000000
       6       0.00000126     0.03708896    -0.00000048     0.00000022
       7       0.03664911     0.36526353    -0.00000338     0.00000155
       8       0.00000047     0.00000246     0.21189133     0.00000000
       9      -0.00000022    -0.00000113     0.00000000     0.21189133
      10      -0.06147399    -0.32256885     0.00000400    -0.00000184
      11       0.06072046     0.48453953    -0.00001972     0.39427368
      12       0.06021809     0.48250496    -0.00001933    -0.39890626
      13       0.99961527     0.26514019     0.00000000     0.00000000
      14      -0.01689497     0.96121613     0.00000000     0.00000000
      15      -0.00000000     0.00000000     0.97064159     0.00000000
      16      -0.00000000     0.00000000     0.00000000     0.97064159
      17       0.00000000    -0.00000000     0.00000000     0.00000000
      18      -0.00001606     0.04052232    -0.00000052     0.00000024
      19       0.03909135     0.37911154    -0.00000327     0.00000150
      20       0.00000061     0.00000313     0.26775601     0.00000000
      21      -0.00000028    -0.00000144     0.00000000     0.26775601
      22      -0.08017390    -0.41094900     0.00000408    -0.00000187
      23       0.06809848     0.52517353    -0.00001899     0.37970328
      24       0.06762522     0.52320297    -0.00001863    -0.38434640

               Column   5     Column   6     Column   7     Column   8
       5       1.00000000
       6       0.06242065     1.00000000
       7       0.44403271     0.23670394     1.00000000
       8       0.00000400     0.00000000     0.00000000     1.00000000
       9      -0.00000184    -0.00000000     0.00000000     0.00000000
      10      -0.31360545    -0.00000000     0.00000000     0.00000000
      11      -0.24373936     0.00476429     0.07308063    -0.00000152
      12      -0.23363465     0.00488694     0.07467580    -0.00000153
      13      -0.00000000     0.00011693     0.04049166     0.00000051
      14      -0.00000000     0.03918862     0.37918429     0.00000230
      15       0.00000000    -0.00000054    -0.00000379     0.23692239
      16       0.00000000     0.00000025     0.00000174     0.00000000
      17       0.97064159     0.07062203     0.49816695     0.00000367
      18       0.06781981     0.99963744     0.25305034     0.00000000
      19       0.42954526    -0.01704350     0.96584043     0.00000000
      20       0.00000408     0.00000000     0.00000000     0.98098348
      21      -0.00000187    -0.00000000     0.00000000     0.00000000
      22      -0.26801827     0.00000000     0.00000000     0.00000000
      23      -0.23473196     0.00721444     0.09884274    -0.00000171
      24      -0.22510711     0.00736009     0.10063156    -0.00000172

               Column   9     Column  10     Column  11     Column  12
       9       1.00000000
      10       0.00000000     1.00000000
      11       0.03771757    -0.07202938     1.00000000
      12      -0.03934100    -0.07296405     0.14255017     1.00000000
      13      -0.00000024    -0.06718201     0.06628742     0.06574732
      14      -0.00000106    -0.30190619     0.49957773     0.49769259
      15       0.00000000     0.00000367    -0.00002221    -0.00002179
      16       0.23692239    -0.00000168     0.44401781    -0.44972765
      17      -0.00000168    -0.24465130    -0.27449111    -0.26340013
      18       0.00000000     0.00000000     0.00533322     0.00546690
      19      -0.00000000    -0.00000000     0.08607553     0.08778817
      20       0.00000000     0.00000000    -0.00000298    -0.00000298
      21       0.98098348     0.00000000     0.07406203    -0.07676260
      22       0.00000000     0.98098348    -0.14143653    -0.14236827
      23       0.04260688    -0.08136651     0.99165347     0.17727154
      24      -0.04435218    -0.08225806     0.17727154     0.99165347

               Column  13     Column  14     Column  15     Column  16
      13       1.00000000
      14       0.00000001     1.00000000
      15      -0.00000000    -0.00000000     1.00000000
      16      -0.00000000     0.00000000     0.00000000     1.00000000
      17       0.00000000    -0.00000000    -0.00000000    -0.00000000
      18       0.00012298     0.04284457    -0.00000058     0.00000027
      19       0.04312425     0.39465894    -0.00000371     0.00000171
      20       0.00000066     0.00000296     0.31793739     0.00000000
      21      -0.00000030    -0.00000136     0.00000000     0.31793739
      22      -0.08695837    -0.38891551     0.00000386    -0.00000177
      23       0.07410878     0.54519046    -0.00002189     0.43758991
      24       0.07359992     0.54335346    -0.00002149    -0.44340816

               Column  17     Column  18     Column  19     Column  20
      17       1.00000000
      18       0.07651184     1.00000000
      19       0.48749136    -0.00000000     1.00000000
      20       0.00000386     0.00000000     0.00000000     1.00000000
      21      -0.00000177    -0.00000000     0.00000000     0.00000000
      22      -0.18837636    -0.00000000     0.00000000     0.00000000
      23      -0.27051739     0.00802463     0.11359763    -0.00000328
      24      -0.25969888     0.00818369     0.11550412    -0.00000328

               Column  21     Column  22     Column  23     Column  24
      21       1.00000000
      22       0.00000000     1.00000000
      23       0.08160337    -0.15583826     1.00000000
      24      -0.08446665    -0.15665664     0.21835546     1.00000000
    ==== End of matrix output ====


                         +-------------------------------+
                         ! Integrals of operator: HUCKEL !
                         +-------------------------------+

 Symmetry of operator:  A  ( 1)

               Column   1     Column   2     Column   3     Column   4
       1       1.00000000
       2       0.24836239     1.00000000
       3      -0.00000000    -0.00000000     1.00000000
       4       0.00000000    -0.00000000     0.00000000     1.00000000
       5      -0.00000000     0.00000000    -0.00000000    -0.00000000
       6       0.00000126     0.03708896    -0.00000048     0.00000022
       7       0.03664911     0.36526353    -0.00000338     0.00000155
       8       0.00000047     0.00000246     0.21189133     0.00000000
       9      -0.00000022    -0.00000113     0.00000000     0.21189133
      10      -0.06147399    -0.32256885     0.00000400    -0.00000184
      11       0.06072046     0.48453953    -0.00001972     0.39427368
      12       0.06021809     0.48250496    -0.00001933    -0.39890626
      13       0.99961527     0.26514019     0.00000000     0.00000000
      14      -0.01689497     0.96121613     0.00000000     0.00000000
      15      -0.00000000     0.00000000     0.97064159     0.00000000
      16      -0.00000000     0.00000000     0.00000000     0.97064159
      17       0.00000000    -0.00000000     0.00000000     0.00000000
      18      -0.00001606     0.04052232    -0.00000052     0.00000024
      19       0.03909135     0.37911154    -0.00000327     0.00000150
      20       0.00000061     0.00000313     0.26775601     0.00000000
      21      -0.00000028    -0.00000144     0.00000000     0.26775601
      22      -0.08017390    -0.41094900     0.00000408    -0.00000187
      23       0.06809848     0.52517353    -0.00001899     0.37970328
      24       0.06762522     0.52320297    -0.00001863    -0.38434640

               Column   5     Column   6     Column   7     Column   8
       5       1.00000000
       6       0.06242065     1.00000000
       7       0.44403271     0.23670394     1.00000000
       8       0.00000400     0.00000000     0.00000000     1.00000000
       9      -0.00000184    -0.00000000     0.00000000     0.00000000
      10      -0.31360545    -0.00000000     0.00000000     0.00000000
      11      -0.24373936     0.00476429     0.07308063    -0.00000152
      12      -0.23363465     0.00488694     0.07467580    -0.00000153
      13      -0.00000000     0.00011693     0.04049166     0.00000051
      14      -0.00000000     0.03918862     0.37918429     0.00000230
      15       0.00000000    -0.00000054    -0.00000379     0.23692239
      16       0.00000000     0.00000025     0.00000174     0.00000000
      17       0.97064159     0.07062203     0.49816695     0.00000367
      18       0.06781981     0.99963744     0.25305034     0.00000000
      19       0.42954526    -0.01704350     0.96584043     0.00000000
      20       0.00000408     0.00000000     0.00000000     0.98098348
      21      -0.00000187    -0.00000000     0.00000000     0.00000000
      22      -0.26801827     0.00000000     0.00000000     0.00000000
      23      -0.23473196     0.00721444     0.09884274    -0.00000171
      24      -0.22510711     0.00736009     0.10063156    -0.00000172

               Column   9     Column  10     Column  11     Column  12
       9       1.00000000
      10       0.00000000     1.00000000
      11       0.03771757    -0.07202938     1.00000000
      12      -0.03934100    -0.07296405     0.14255017     1.00000000
      13      -0.00000024    -0.06718201     0.06628742     0.06574732
      14      -0.00000106    -0.30190619     0.49957773     0.49769259
      15       0.00000000     0.00000367    -0.00002221    -0.00002179
      16       0.23692239    -0.00000168     0.44401781    -0.44972765
      17      -0.00000168    -0.24465130    -0.27449111    -0.26340013
      18       0.00000000     0.00000000     0.00533322     0.00546690
      19      -0.00000000    -0.00000000     0.08607553     0.08778817
      20       0.00000000     0.00000000    -0.00000298    -0.00000298
      21       0.98098348     0.00000000     0.07406203    -0.07676260
      22       0.00000000     0.98098348    -0.14143653    -0.14236827
      23       0.04260688    -0.08136651     0.99165347     0.17727154
      24      -0.04435218    -0.08225806     0.17727154     0.99165347

               Column  13     Column  14     Column  15     Column  16
      13     -11.33840000
      14       0.00000000    -0.71210000
      15       0.00000000     0.00000000    -0.40690000
      16       0.00000000     0.00000000    -0.00000000    -0.40690000
      17       0.00000000     0.00000000     0.00000000     0.00000000

               Column  17     Column  18     Column  19     Column  20
      17      -0.40690000
      18       0.00000000   -20.68090000
      19       0.00000000     0.00000000    -1.25040000
      20       0.00000000     0.00000000     0.00000000    -0.61620000

               Column  21     Column  22     Column  23     Column  24
      21      -0.61620000
      22      -0.00000000    -0.61620000
      23       0.00000000     0.00000000    -0.50000000
      24       0.00000000     0.00000000     0.00000000    -0.50000000
    ==== End of matrix output ====


                         +--------------------------------+
                         ! Integrals of operator: OVERLAP !
                         +--------------------------------+

 Symmetry of operator:  A  ( 1)

               Column   1     Column   2     Column   3     Column   4
       1       1.00000000
       2       0.24836239     1.00000000
       3      -0.00000000    -0.00000000     1.00000000
       4       0.00000000    -0.00000000     0.00000000     1.00000000
       5      -0.00000000     0.00000000    -0.00000000    -0.00000000
       6       0.00000126     0.03708896    -0.00000048     0.00000022
       7       0.03664911     0.36526353    -0.00000338     0.00000155
       8       0.00000047     0.00000246     0.21189133     0.00000000
       9      -0.00000022    -0.00000113     0.00000000     0.21189133
      10      -0.06147399    -0.32256885     0.00000400    -0.00000184
      11       0.06072046     0.48453953    -0.00001972     0.39427368
      12       0.06021809     0.48250496    -0.00001933    -0.39890626

               Column   5     Column   6     Column   7     Column   8
       5       1.00000000
       6       0.06242065     1.00000000
       7       0.44403271     0.23670394     1.00000000
       8       0.00000400     0.00000000     0.00000000     1.00000000
       9      -0.00000184    -0.00000000     0.00000000     0.00000000
      10      -0.31360545    -0.00000000     0.00000000     0.00000000
      11      -0.24373936     0.00476429     0.07308063    -0.00000152
      12      -0.23363465     0.00488694     0.07467580    -0.00000153

               Column   9     Column  10     Column  11     Column  12
       9       1.00000000
      10       0.00000000     1.00000000
      11       0.03771757    -0.07202938     1.00000000
      12      -0.03934100    -0.07296405     0.14255017     1.00000000
    ==== End of matrix output ====


                        +---------------------------------+
                        ! Integrals of operator: HJPOPOVL !
                        +---------------------------------+

 Symmetry of operator:  A  ( 1)

               Column   1     Column   2     Column   3     Column   4     Column   5
       1       1.00000000     0.24836239    -0.00000000     0.00000000    -0.00000000
       2       0.24836239     1.00000000    -0.00000000    -0.00000000     0.00000000
       3      -0.00000000    -0.00000000     1.00000000     0.00000000    -0.00000000
       4       0.00000000    -0.00000000     0.00000000     1.00000000    -0.00000000
       5      -0.00000000     0.00000000    -0.00000000    -0.00000000     1.00000000
       6       0.00000088     0.00232256    -0.00000004     0.00000002     0.00549722
       7       0.06732748     0.27953313    -0.00000304     0.00000139     0.39851106
       8       0.00000085     0.00000176     0.17389407     0.00000000     0.00000341
       9      -0.00000039    -0.00000081     0.00000000     0.17389407    -0.00000157
      10      -0.11102238    -0.23146581     0.00000341    -0.00000157    -0.27426135
      11       0.11376428     0.46129579    -0.00001930     0.38588027    -0.23855057
      12       0.11284693     0.45950799    -0.00001892    -0.39050131    -0.22871197

               Column   6     Column   7     Column   8     Column   9     Column  10
       1       0.00000163     0.00597075     0.00000009    -0.00000004    -0.01192561
       2       0.07185536     0.45099393     0.00000315    -0.00000145    -0.41367189
       3      -0.00000091    -0.00000373     0.24988859     0.00000000     0.00000459
       4       0.00000042     0.00000171     0.00000000     0.24988859    -0.00000211
       5       0.11934409     0.48955435     0.00000459    -0.00000211    -0.35294956
       6       1.00000000     0.23670394     0.00000000    -0.00000000    -0.00000000
       7       0.23670394     1.00000000     0.00000000     0.00000000     0.00000000
       8       0.00000000     0.00000000     1.00000000     0.00000000     0.00000000
       9      -0.00000000     0.00000000     0.00000000     1.00000000     0.00000000
      10      -0.00000000     0.00000000     0.00000000     0.00000000     1.00000000
      11       0.00934004     0.09714492    -0.00000199     0.04941338    -0.09436492
      12       0.00958028     0.09914754    -0.00000200    -0.05145328    -0.09542816

               Column  11     Column  12
       1       0.00767664     0.00758925
       2       0.50778327     0.50550193
       3      -0.00002014    -0.00001974
       4       0.40266708    -0.40731121
       5      -0.24892815    -0.23855733
       6       0.00018853     0.00019360
       7       0.04901635     0.05020405
       8      -0.00000105    -0.00000106
       9       0.02602175    -0.02722872
      10      -0.04969384    -0.05049994
      11       1.00000000     0.14255017
      12       0.14255017     1.00000000
    ==== End of matrix output ====


                         +--------------------------------+
                         ! Integrals of operator: XDIPLEN !
                         +--------------------------------+

 Symmetry of operator:  A  ( 1)

               Column   1     Column   2     Column   3     Column   4
       1       0.00001518
       2       0.00000377     0.00001518
       3       0.07185549     0.83874358     0.00001518
       4       0.00000000    -0.00000000    -0.00000000     0.00001518
       5      -0.00000000     0.00000000     0.00000000    -0.00000000
       6       0.00000000    -0.00000006     0.00160215    -0.00000000
       7       0.00000050     0.00000162     0.21244974     0.00000000
       8       0.00290433     0.24764706     0.00000038     0.00000100
       9      -0.00000000    -0.00000000    -0.00000070     0.00000104
      10      -0.00000083    -0.00000130    -0.19869508    -0.00000000
      11       0.00000058    -0.00001512     0.34891284    -0.00001184
      12       0.00000058    -0.00001473     0.34738902     0.00001172

               Column   5     Column   6     Column   7     Column   8
       5       0.00001518
       6      -0.00000009    -0.00000223
       7       0.00000248    -0.00000053    -0.00000223
       8       0.28552806     0.05079193     0.64117284    -0.00000223
       9      -0.00000000     0.00000000    -0.00000000     0.00000000
      10      -0.00000169     0.00000000    -0.00000000     0.00000000
      11       0.00000732    -0.00000002    -0.00000191     0.05052186
      12       0.00000686    -0.00000002    -0.00000192     0.05158660

               Column   9     Column  10     Column  11     Column  12
       9      -0.00000223
      10      -0.00000000    -0.00000223
      11      -0.00000101     0.00000193    -0.00007333
      12       0.00000104     0.00000193    -0.00001037    -0.00007209
    ==== End of matrix output ====


                         +--------------------------------+
                         ! Integrals of operator: YDIPLEN !
                         +--------------------------------+

 Symmetry of operator:  A  ( 1)

               Column   1     Column   2     Column   3     Column   4
       1       0.00105028
       2       0.00026085     0.00105028
       3      -0.00000000    -0.00000000     0.00105028
       4       0.07185549     0.83874358    -0.00000000     0.00105028
       5      -0.00000000     0.00000000    -0.00000000     0.00000000
       6       0.00000000     0.00003924    -0.00000000     0.00160215
       7       0.00003852     0.00038543    -0.00000000     0.21244974
       8       0.00000000     0.00000000     0.00022354     0.00000151
       9       0.00290433     0.24764705    -0.00000217     0.00022385
      10      -0.00006461    -0.00034044     0.00000000    -0.19869509
      11       0.00685550     0.44975824    -0.00001784     0.70557720
      12      -0.00677032    -0.45466099     0.00001775     0.71372421

               Column   5     Column   6     Column   7     Column   8
       5       0.00105028
       6       0.00006604     0.00105827
       7       0.00046831     0.00025050     0.00105827
       8       0.00000000     0.00000000     0.00000000     0.00105827
       9       0.28552805     0.05079193     0.64117284     0.00000000
      10      -0.00033078    -0.00000000     0.00000000     0.00000000
      11      -0.22048934     0.00017184     0.04344321    -0.00000093
      12       0.21455816    -0.00016915    -0.04512628     0.00000095

               Column   9     Column  10     Column  11     Column  12
       9       0.00105827
      10       0.00000000     0.00105827
      11       0.07358381    -0.04404149     1.77050338
      12       0.07606256     0.04539451    -0.00208843    -1.79980438
    ==== End of matrix output ====


                         +--------------------------------+
                         ! Integrals of operator: ZDIPLEN !
                         +--------------------------------+

 Symmetry of operator:  A  ( 1)

               Column   1     Column   2     Column   3     Column   4
       1      -1.14582446
       2      -0.28457970    -1.14582446
       3       0.00000000     0.00000000    -1.14582446
       4      -0.00000000     0.00000000    -0.00000000    -1.14582446
       5       0.07185549     0.83874358    -0.00000000    -0.00000000
       6       0.00000042     0.03960604    -0.00000049     0.00000023
       7      -0.03517114     0.09678743    -0.00000039     0.00000018
       8      -0.00000043     0.00000079     0.04273779     0.00000000
       9       0.00000020    -0.00000036     0.00000000     0.04273779
      10       0.05971628     0.14458398    -0.00000151     0.00000070
      11      -0.07377362    -0.83292247     0.00003362    -0.67200176
      12      -0.07300170    -0.81945232     0.00003256     0.67188009

               Column   5     Column   6     Column   7     Column   8
       5      -1.14582446
       6       0.06644414     1.13941835
       7       0.26304148     0.26970481     1.13941835
       8       0.00000217     0.00000000     0.00000000     1.13941835
       9      -0.00000100    -0.00000000     0.00000000     0.00000000
      10       0.04288205     0.05079193     0.64117284     0.00000000
      11       0.76434327     0.00510998     0.00045345     0.00000004
      12       0.74090119     0.00524496     0.00124665     0.00000003

               Column   9     Column  10     Column  11     Column  12
       9       1.13941835
      10       0.00000000     1.13941835
      11      -0.00098917     0.05241089    -2.23969756
      12       0.00064587     0.05278446    -0.31647999    -2.20056359
    ==== End of matrix output ====


                        +---------------------------------+
                        ! Integrals of operator: XXQUADRU !
                        +---------------------------------+

 Symmetry of operator:  A  ( 1)

               Column   1     Column   2     Column   3     Column   4
       1       0.34376124
       2       0.09469631     0.74890389
       3      -0.00000000    -0.00000000     0.58242380
       4       0.00003773     0.00044046    -0.00000000     0.83661891
       5      -0.04116689    -0.48052645     0.00000000     0.00000000
       6       0.00000007     0.01164575    -0.00000014     0.00000091
       7       0.01033365     0.13722761    -0.00000110     0.00011251
       8       0.00000013     0.00000083     0.06635382     0.00000000
       9       0.00000147     0.00013034    -0.00000000     0.12109523
      10      -0.01769359    -0.05836798     0.00000072    -0.00010508
      11       0.02579085     0.68628149    -0.00002553     0.63554874
      12       0.02547904     0.67831176    -0.00002483    -0.63881981

               Column   5     Column   6     Column   7     Column   8
       5       0.83661891
       6       0.01947437     0.33307925
       7       0.14837468     0.08375873     0.57040099
       8       0.00000109     0.00000000     0.00000000     0.47311416
       9       0.00015018     0.00002688     0.00033927     0.00000000
      10       0.02511193     0.02893663     0.36528205     0.00000000
      11      -0.59267839     0.00151044     0.03984756    -0.00000083
      12      -0.57327942     0.00155103     0.04089877    -0.00000083

               Column   9     Column  10     Column  11     Column  12
       9       0.62165949
      10       0.00000000     0.62165949
      11       0.03310067    -0.03437865     2.36249396
      12      -0.03451602    -0.03467664     0.26764850     2.34520611
    ==== End of matrix output ====


                        +---------------------------------+
                        ! Integrals of operator: XYQUADRU !
                        +---------------------------------+

 Symmetry of operator:  A  ( 1)

               Column   1     Column   2     Column   3     Column   4
       1      -0.00000000
       2      -0.00000000    -0.00000000
       3      -0.00001887    -0.00022023    -0.00000000
       4      -0.00000027    -0.00000318    -0.12709755    -0.00000000
       5       0.00000000    -0.00000000    -0.00000000    -0.00000000
       6      -0.00000000     0.00000000    -0.00000042     0.00000000
       7      -0.00000000    -0.00000000    -0.00005600    -0.00000033
       8      -0.00000076    -0.00006536    -0.00000000    -0.02737070
       9      -0.00000001    -0.00000021    -0.02737070    -0.00000000
      10       0.00000000     0.00000000     0.00005237     0.00000032
      11      -0.00000001     0.00000418    -0.06254224     0.00000515
      12       0.00000001    -0.00000414     0.06317841     0.00000512

               Column   5     Column   6     Column   7     Column   8
       5      -0.00000000
       6       0.00000000     0.00000000
       7      -0.00000000     0.00000000     0.00000000
       8      -0.00007534    -0.00001344    -0.00016963     0.00000000
       9      -0.00000028     0.00000003     0.00000036    -0.07427267
      10       0.00000000    -0.00000000     0.00000000    -0.00000000
      11      -0.00000207     0.00000000     0.00000033    -0.00627143
      12       0.00000198    -0.00000000    -0.00000034     0.00649699

               Column   9     Column  10     Column  11     Column  12
       9       0.00000000
      10       0.00000000     0.00000000
      11       0.00000047    -0.00000037     0.00003246
      12       0.00000048     0.00000038    -0.00000003    -0.00003244
    ==== End of matrix output ====


                        +---------------------------------+
                        ! Integrals of operator: XZQUADRU !
                        +---------------------------------+

 Symmetry of operator:  A  ( 1)

               Column   1     Column   2     Column   3     Column   4
       1       0.00000435
       2       0.00000108     0.00000435
       3       0.02058344     0.24026323     0.00000435
       4       0.00000000    -0.00000000    -0.00000000     0.00000435
       5      -0.00000027    -0.00000318    -0.12709755     0.00000000
       6      -0.00000000     0.00000002    -0.00040747     0.00000000
       7       0.00000012    -0.00000005    -0.00211688     0.00000000
       8       0.00063752    -0.02501189     0.00000020    -0.00000008
       9      -0.00000000     0.00000000     0.00000000     0.00000002
      10      -0.00000020    -0.00000017    -0.02680901    -0.00000000
      11       0.00000017    -0.00000691     0.13855510    -0.00000546
      12       0.00000017    -0.00000665     0.13656797     0.00000533

               Column   5     Column   6     Column   7     Column   8
       5       0.00000435
       6       0.00000002     0.00000063
       7      -0.00000027     0.00000015     0.00000063
       8      -0.05122556    -0.01446831    -0.18264103     0.00000063
       9       0.00000000    -0.00000000     0.00000000    -0.00000000
      10      -0.00000001     0.00000003     0.00000036    -0.07427267
      11       0.00000517     0.00000000    -0.00000009    -0.00244033
      12       0.00000487     0.00000000    -0.00000008    -0.00261968

               Column   9     Column  10     Column  11     Column  12
       9       0.00000063
      10       0.00000000     0.00000063
      11      -0.00000008     0.00000043    -0.00004106
      12       0.00000008     0.00000043    -0.00000575    -0.00003966
    ==== End of matrix output ====


                        +---------------------------------+
                        ! Integrals of operator: YYQUADRU !
                        +---------------------------------+

 Symmetry of operator:  A  ( 1)

               Column   1     Column   2     Column   3     Column   4
       1       0.34376097
       2       0.09469624     0.74890362
       3       0.00000055     0.00000637     0.83661863
       4       0.00000000    -0.00000000    -0.00000000     0.58242353
       5      -0.04116689    -0.48052645     0.00000000     0.00000000
       6       0.00000007     0.01164574    -0.00000014     0.00000007
       7       0.01033364     0.13722751    -0.00000044     0.00000050
       8       0.00000014     0.00000124     0.12109517     0.00000000
       9      -0.00000006    -0.00000038     0.00000000     0.06635377
      10      -0.01769358    -0.05836789     0.00000009    -0.00000033
      11       0.02546989     0.56853092    -0.00002443     0.41637424
      12       0.02515851     0.55740289    -0.00002357    -0.41428074

               Column   5     Column   6     Column   7     Column   8
       5       0.83661863
       6       0.01947435     0.33307897
       7       0.14837456     0.08375866     0.57040071
       8       0.00000165    -0.00000006    -0.00000071     0.62165921
       9      -0.00000050    -0.00000000     0.00000000    -0.00000000
      10       0.02511202     0.02893663     0.36528205    -0.00000000
      11      -0.53451209     0.00150850     0.03221655    -0.00000120
      12      -0.51577525     0.00154915     0.03282431    -0.00000121

               Column   9     Column  10     Column  11     Column  12
       9       0.47311388
      10       0.00000000     0.62165921
      11       0.01606205    -0.02579310     1.57882341
      12      -0.01665849    -0.02565641     0.24740379     1.53538216
    ==== End of matrix output ====


                        +---------------------------------+
                        ! Integrals of operator: YZQUADRU !
                        +---------------------------------+

 Symmetry of operator:  A  ( 1)

               Column   1     Column   2     Column   3     Column   4
       1       0.00030086
       2       0.00007472     0.00030086
       3      -0.00000000    -0.00000000     0.00030086
       4       0.02058344     0.24026323    -0.00000000     0.00030086
       5      -0.00001887    -0.00022023     0.00000000    -0.12709755
       6      -0.00000000    -0.00001048     0.00000000    -0.00040747
       7       0.00000924    -0.00002556     0.00000000    -0.00211688
       8       0.00000000    -0.00000000    -0.00001131    -0.00000000
       9       0.00063752    -0.02501189     0.00000018    -0.00001139
      10      -0.00001569    -0.00003814     0.00000000    -0.02680901
      11       0.00216110     0.20155621    -0.00000802     0.29883219
      12      -0.00212817    -0.20112523     0.00000787     0.29906744

               Column   5     Column   6     Column   7     Column   8
       5       0.00030086
       6      -0.00001757    -0.00030145
       7      -0.00006940    -0.00007136    -0.00030145
       8      -0.00000000     0.00000000     0.00000000    -0.00030145
       9      -0.05122556    -0.01446831    -0.18264103     0.00000000
      10      -0.00001133    -0.00001344    -0.00016963     0.00000000
      11      -0.16162529    -0.00004533     0.00217601    -0.00000008
      12       0.15835242     0.00004461    -0.00214307     0.00000008

               Column   9     Column  10     Column  11     Column  12
       9      -0.00030145
      10      -0.07427267    -0.00030145
      11      -0.00043573    -0.01009962     0.99134802
      12      -0.00055953     0.01031786    -0.00093733    -0.99014600
    ==== End of matrix output ====


                        +---------------------------------+
                        ! Integrals of operator: ZZQUADRU !
                        +---------------------------------+

 Symmetry of operator:  A  ( 1)

               Column   1     Column   2     Column   3     Column   4
       1       0.01553282
       2       0.01317671     0.42067547
       3       0.00000055     0.00000637     0.50839049
       4       0.00003773     0.00044046    -0.00000000     0.50839049
       5      -0.00000000     0.00000000     0.00000000     0.00000000
       6       0.00000003     0.00104758    -0.00000001     0.00000085
       7       0.00179020     0.12306466    -0.00000031     0.00011245
       8       0.00000004     0.00000111     0.10948287     0.00000000
       9       0.00000152     0.00013040    -0.00000000     0.10948287
      10      -0.00292968    -0.09106312     0.00000024    -0.00010515
      11       0.00333393     0.32321923    -0.00001455     0.34407576
      12       0.00330959     0.32565197    -0.00001439    -0.35107833

               Column   5     Column   6     Column   7     Column   8
       5       0.25419538
       6       0.00173285     0.00851070
       7       0.12594894     0.00693208     0.24583245
       8       0.00000143    -0.00000006    -0.00000071     0.29709095
       9       0.00015028     0.00002688     0.00033927    -0.00000000
      10      -0.06021691    -0.00000000     0.00000000    -0.00000000
      11      -0.13538006     0.00013883     0.03556262    -0.00000124
      12      -0.13161671     0.00014229     0.03656961    -0.00000126

               Column   9     Column  10     Column  11     Column  12
       9       0.29709095
      10       0.00000000     0.14854561
      11       0.02955475    -0.03248766     1.10843268
      12      -0.03087881    -0.03317022     0.09198935     1.13458608
    ==== End of matrix output ====


                        +---------------------------------+
                        ! Integrals of operator: KINENERG !
                        +---------------------------------+

 Symmetry of operator:  A  ( 1)

               Column   1     Column   2     Column   3     Column   4
       1      15.89112169
       2      -0.08589001     0.47224997
       3       0.00000000    -0.00000000     1.47772808
       4       0.00000000    -0.00000000     0.00000000     1.47772808
       5      -0.00000000     0.00000000    -0.00000000    -0.00000000
       6      -0.00006024    -0.00512693     0.00000002    -0.00000001
       7      -0.01923819     0.06266315    -0.00000171     0.00000078
       8      -0.00000017     0.00000128     0.09924176     0.00000000
       9       0.00000008    -0.00000059     0.00000000     0.09924176
      10       0.02261102    -0.16764141     0.00000381    -0.00000175
      11      -0.01088162     0.10336098    -0.00001083     0.21651600
      12      -0.01098837     0.10222604    -0.00001055    -0.21778588

               Column   5     Column   6     Column   7     Column   8
       5       1.47772808
       6      -0.00232805    29.00319995
       7       0.22404933    -0.16801094     0.80812795
       8       0.00000381     0.00000000     0.00000000     2.52873120
       9      -0.00000175     0.00000000     0.00000000     0.00000000
      10      -0.40161563    -0.00000000     0.00000000     0.00000000
      11      -0.13384984    -0.00169404    -0.01749037     0.00000013
      12      -0.12755460    -0.00171086    -0.01759638     0.00000012

               Column   9     Column  10     Column  11     Column  12
       9       2.52873120
      10       0.00000000     2.52873120
      11      -0.00320182     0.00611452     0.76003186
      12       0.00318474     0.00590661    -0.00835623     0.76003186
    ==== End of matrix output ====


                         +--------------------------------+
                         ! Integrals of operator: XANGLON !
                         +--------------------------------+

 Symmetry of operator:  A  ( 1)

               Column   1     Column   2     Column   3     Column   4     Column   5
       4       0.00000000    -0.00000000     0.00000000    -0.00000000    -1.00000000
       5       0.00000000    -0.00000000     0.00000000     1.00000000     0.00000000
       6       0.00000000     0.00000000    -0.00000000     0.06242065    -0.00000022
       7       0.00000000     0.00000000    -0.00000000     0.44403271    -0.00000155
       8       0.00000000     0.00000000     0.00000000     0.00000400    -0.00000000
       9       0.00000000     0.00000000    -0.00000000    -0.00000184    -0.21189133
      10      -0.00000000    -0.00000000     0.00000000    -0.31360545     0.00000184
      11       0.00000000     0.00000000    -0.00000000    -0.24373936    -0.39427368
      12       0.00000000    -0.00000000    -0.00000000    -0.23363465     0.39890626

               Column   6     Column   7     Column   8     Column   9     Column  10
       1       0.00000000     0.00000000     0.00000000    -0.06147399     0.00000022
       2       0.00000000     0.00000000     0.00000000    -0.32256885     0.00000113
       3      -0.00000000    -0.00000000     0.00000000     0.00000400    -0.00000000
       4      -0.00000000    -0.00000000    -0.00000000    -0.00000184    -0.21189133
       5       0.00000000     0.00000000     0.00000000    -0.31360545     0.00000184
       9      -0.00000000     0.00000000     0.00000000     0.00000000    -1.00000000
      10       0.00000000    -0.00000000     0.00000000     1.00000000    -0.00000000
      11       0.00000000     0.00000000    -0.00000000    -0.07202938    -0.03771757
      12       0.00000000    -0.00000000     0.00000000    -0.07296405     0.03934100

               Column  11     Column  12
    ==== End of matrix output ====


                         +--------------------------------+
                         ! Integrals of operator: YANGLON !
                         +--------------------------------+

 Symmetry of operator:  A  ( 1)

               Column   1     Column   2     Column   3     Column   4     Column   5
       3       0.00000000     0.00000000     0.00000000    -0.00000000     1.00000000
       5       0.00000000     0.00000000    -1.00000000    -0.00000000    -0.00000000
       6       0.00000000     0.00000000    -0.06242065     0.00000000    -0.00000048
       7       0.00000000     0.00000000    -0.44403271     0.00000000    -0.00000338
       8      -0.00000000    -0.00000000    -0.00000400    -0.00000000     0.21189133
       9      -0.00000000    -0.00000000     0.00000184     0.00000000     0.00000000
      10      -0.00000000    -0.00000000     0.31360545    -0.00000000     0.00000400
      11      -0.00000000     0.00000000     0.24373936    -0.00000000    -0.00001972
      12      -0.00000000    -0.00000000     0.23363465    -0.00000000    -0.00001933

               Column   6     Column   7     Column   8     Column   9     Column  10
       1       0.00000000    -0.00000000     0.06147399    -0.00000000     0.00000047
       2       0.00000000     0.00000000     0.32256885    -0.00000000     0.00000246
       3       0.00000000     0.00000000    -0.00000400    -0.00000000     0.21189133
       4       0.00000000     0.00000000     0.00000184     0.00000000     0.00000000
       5       0.00000000     0.00000000     0.31360545    -0.00000000     0.00000400
       8       0.00000000    -0.00000000     0.00000000     0.00000000     1.00000000
      10       0.00000000     0.00000000    -1.00000000     0.00000000     0.00000000
      11       0.00000000     0.00000000     0.07202938     0.00000000    -0.00000152
      12       0.00000000     0.00000000     0.07296405    -0.00000000    -0.00000153

               Column  11     Column  12
    ==== End of matrix output ====


                         +--------------------------------+
                         ! Integrals of operator: ZANGLON !
                         +--------------------------------+

 Symmetry of operator:  A  ( 1)

               Column   1     Column   2     Column   3     Column   4     Column   5
       3       0.00000000     0.00000000     0.00000000    -1.00000000     0.00000000
       4      -0.00000000    -0.00000000     1.00000000    -0.00000000    -0.00000000
       6       0.00000000     0.00000000     0.00000022     0.00000048     0.00000000
       7       0.00000000    -0.00000000     0.00000155     0.00000338    -0.00000000
       8      -0.00000000    -0.00000000     0.00000000    -0.21189133    -0.00000000
       9       0.00000000    -0.00000000     0.21189133    -0.00000000     0.00000000
      10      -0.00000000     0.00000000    -0.00000184    -0.00000400    -0.00000000
      11      -0.00000000    -0.00000000     0.39427368     0.00001972    -0.00000000
      12      -0.00000000    -0.00000000    -0.39890626     0.00001933     0.00000000

               Column   6     Column   7     Column   8     Column   9     Column  10
       1       0.00000000    -0.00000000    -0.00000022    -0.00000047     0.00000000
       2      -0.00000000    -0.00000000    -0.00000113    -0.00000246     0.00000000
       3      -0.00000000     0.00000000     0.00000000    -0.21189133     0.00000000
       4      -0.00000000     0.00000000     0.21189133    -0.00000000     0.00000000
       5       0.00000000     0.00000000    -0.00000184    -0.00000400    -0.00000000
       8      -0.00000000     0.00000000     0.00000000    -1.00000000     0.00000000
       9       0.00000000     0.00000000     1.00000000     0.00000000     0.00000000
      11      -0.00000000    -0.00000000     0.03771757     0.00000152    -0.00000000
      12      -0.00000000     0.00000000    -0.03934100     0.00000153     0.00000000

               Column  11     Column  12
    ==== End of matrix output ====

 Threshold for neglecting two-electron integrals:  1.00D-12
 HERMIT - Number of two-electron integrals written:        2772 ( 90.0% )
 HERMIT - Megabytes written:                              0.034

  Total CPU  time used in HERMIT:   0.01 seconds
  Total wall time used in HERMIT:   0.01 seconds


                        .----------------------------------.
                        | End of Integral Section (HERMIT) |
                        `----------------------------------'

  Total CPU  time used in DALTON:   0.02 seconds
  Total wall time used in DALTON:   0.02 seconds

 
     Date and time (Linux)  : Tue Mar 22 16:34:24 2016
     Host name              : olav-ThinkPad-W540                      
