

     ************************************************************************
     *************** Dalton - An Electronic Structure Program ***************
     ************************************************************************

    This is output from DALTON release Dalton2020.0.beta (2020)
         ( Web site: http://daltonprogram.org )

   ----------------------------------------------------------------------------

    NOTE:
     
    Dalton is an experimental code for the evaluation of molecular
    properties using (MC)SCF, DFT, CI, and CC wave functions.
    The authors accept no responsibility for the performance of
    the code or for the correctness of the results.
     
    The code (in whole or part) is provided under a licence and
    is not to be reproduced for further distribution without
    the written permission of the authors or their representatives.
     
    See the home page "http://daltonprogram.org" for further information.
     
    If results obtained with this code are published,
    the appropriate citations would be both of:
     
       K. Aidas, C. Angeli, K. L. Bak, V. Bakken, R. Bast,
       L. Boman, O. Christiansen, R. Cimiraglia, S. Coriani,
       P. Dahle, E. K. Dalskov, U. Ekstroem,
       T. Enevoldsen, J. J. Eriksen, P. Ettenhuber, B. Fernandez,
       L. Ferrighi, H. Fliegl, L. Frediani, K. Hald, A. Halkier,
       C. Haettig, H. Heiberg, T. Helgaker, A. C. Hennum,
       H. Hettema, E. Hjertenaes, S. Hoest, I.-M. Hoeyvik,
       M. F. Iozzi, B. Jansik, H. J. Aa. Jensen, D. Jonsson,
       P. Joergensen, J. Kauczor, S. Kirpekar,
       T. Kjaergaard, W. Klopper, S. Knecht, R. Kobayashi, H. Koch,
       J. Kongsted, A. Krapp, K. Kristensen, A. Ligabue,
       O. B. Lutnaes, J. I. Melo, K. V. Mikkelsen, R. H. Myhre,
       C. Neiss, C. B. Nielsen, P. Norman, J. Olsen,
       J. M. H. Olsen, A. Osted, M. J. Packer, F. Pawlowski,
       T. B. Pedersen, P. F. Provasi, S. Reine, Z. Rinkevicius,
       T. A. Ruden, K. Ruud, V. Rybkin, P. Salek, C. C. M. Samson,
       A. Sanchez de Meras, T. Saue, S. P. A. Sauer,
       B. Schimmelpfennig, K. Sneskov, A. H. Steindal,
       K. O. Sylvester-Hvid, P. R. Taylor, A. M. Teale,
       E. I. Tellgren, D. P. Tew, A. J. Thorvaldsen, L. Thoegersen,
       O. Vahtras, M. A. Watson, D. J. D. Wilson, M. Ziolkowski
       and H. Agren,
       "The Dalton quantum chemistry program system",
       WIREs Comput. Mol. Sci. 2014, 4:269–284 (doi: 10.1002/wcms.1172)
     
    and
     
       Dalton, a molecular electronic structure program,
       Release Dalton2020.0.beta (2020), see http://daltonprogram.org
   ----------------------------------------------------------------------------

    Authors in alphabetical order (major contribution(s) in parenthesis):

  Kestutis Aidas,           Vilnius University,           Lithuania   (QM/MM)
  Celestino Angeli,         University of Ferrara,        Italy       (NEVPT2)
  Keld L. Bak,              UNI-C,                        Denmark     (AOSOPPA, non-adiabatic coupling, magnetic properties)
  Vebjoern Bakken,          University of Oslo,           Norway      (DALTON; geometry optimizer, symmetry detection)
  Radovan Bast,             UiT The Arctic U. of Norway,  Norway      (DALTON installation and execution frameworks)
  Pablo Baudin,             University of Valencia,       Spain       (Cholesky excitation energies)
  Linus Boman,              NTNU,                         Norway      (Cholesky decomposition and subsystems)
  Ove Christiansen,         Aarhus University,            Denmark     (CC module)
  Renzo Cimiraglia,         University of Ferrara,        Italy       (NEVPT2)
  Sonia Coriani,            Technical Univ. of Denmark,   Denmark     (CC module, MCD in RESPONS)
  Janusz Cukras,            University of Trieste,        Italy       (MChD in RESPONS)
  Paal Dahle,               University of Oslo,           Norway      (Parallelization)
  Erik K. Dalskov,          UNI-C,                        Denmark     (SOPPA)
  Thomas Enevoldsen,        Univ. of Southern Denmark,    Denmark     (SOPPA)
  Janus J. Eriksen,         Aarhus University,            Denmark     (Polarizable embedding model, TDA)
  Rasmus Faber,             University of Copenhagen,     Denmark     (Vib.avg. NMR with SOPPA, parallel AO-SOPPA)
  Tobias Fahleson,          KTH Stockholm,                Sweden      (Damped cubic response)
  Berta Fernandez,          U. of Santiago de Compostela, Spain       (doublet spin, ESR in RESPONS)
  Lara Ferrighi,            Aarhus University,            Denmark     (PCM Cubic response)
  Heike Fliegl,             University of Oslo,           Norway      (CCSD(R12))
  Luca Frediani,            UiT The Arctic U. of Norway,  Norway      (PCM)
  Bin Gao,                  UiT The Arctic U. of Norway,  Norway      (Gen1Int library)
  Christof Haettig,         Ruhr-University Bochum,       Germany     (CC module)
  Kasper Hald,              Aarhus University,            Denmark     (CC module)
  Asger Halkier,            Aarhus University,            Denmark     (CC module)
  Frederik Beyer Hansen,    University of Copenhagen,     Denmark     (Parallel AO-SOPPA)
  Erik D. Hedegaard,        Univ. of Southern Denmark,    Denmark     (Polarizable embedding model, QM/MM)
  Hanne Heiberg,            University of Oslo,           Norway      (geometry analysis, selected one-electron integrals)
  Trygve Helgaker,          University of Oslo,           Norway      (DALTON; ABACUS, ERI, DFT modules, London, and much more)
  Alf Christian Hennum,     University of Oslo,           Norway      (Parity violation)
  Hinne Hettema,            University of Auckland,       New Zealand (quadratic response in RESPONS; SIRIUS supersymmetry)
  Eirik Hjertenaes,         NTNU,                         Norway      (Cholesky decomposition)
  Pi A. B. Haase,           University of Copenhagen,     Denmark     (Triplet AO-SOPPA)
  Maria Francesca Iozzi,    University of Oslo,           Norway      (RPA)
  Christoph Jacob           TU Braunschweig               Germany     (Frozen density embedding model)
  Brano Jansik              Technical Univ. of Ostrava    Czech Rep.  (DFT cubic response)
  Hans Joergen Aa. Jensen,  Univ. of Southern Denmark,    Denmark     (DALTON; SIRIUS, RESPONS, ABACUS modules, London, and much more)
  Dan Jonsson,              UiT The Arctic U. of Norway,  Norway      (cubic response in RESPONS module)
  Poul Joergensen,          Aarhus University,            Denmark     (RESPONS, ABACUS, and CC modules)
  Maciej Kaminski,          University of Warsaw,         Poland      (CPPh in RESPONS)
  Joanna Kauczor,           Linkoeping University,        Sweden      (Complex polarization propagator (CPP) module)
  Sheela Kirpekar,          Univ. of Southern Denmark,    Denmark     (Mass-velocity & Darwin integrals)
  Wim Klopper,              KIT Karlsruhe,                Germany     (R12 code in CC, SIRIUS, and ABACUS modules)
  Stefan Knecht,            ETH Zurich,                   Switzerland (Parallel CI and MCSCF)
  Rika Kobayashi,           Australian National Univ.,    Australia   (DIIS in CC, London in MCSCF)
  Henrik Koch,              NTNU,                         Norway      (CC module, Cholesky decomposition)
  Jacob Kongsted,           Univ. of Southern Denmark,    Denmark     (Polarizable embedding model, QM/MM)
  Andrea Ligabue,           University of Modena,         Italy       (CTOCD, AOSOPPA)
  Nanna H. List             Univ. of Southern Denmark,    Denmark     (Polarizable embedding model)
  Ola B. Lutnaes,           University of Oslo,           Norway      (DFT Hessian)
  Juan I. Melo,             University of Buenos Aires,   Argentina   (LRESC, Relativistic Effects on NMR Shieldings)
  Kurt V. Mikkelsen,        University of Copenhagen,     Denmark     (MC-SCRF and QM/MM)
  Rolf H. Myhre,            NTNU,                         Norway      (Subsystems and CC3)
  Christian Neiss,          Univ. Erlangen-Nuernberg,     Germany     (CCSD(R12))
  Christian B. Nielsen,     University of Copenhagen,     Denmark     (QM/MM)
  Patrick Norman,           KTH Stockholm,                Sweden      (Cubic response and complex frequency response in RESPONS)
  Jeppe Olsen,              Aarhus University,            Denmark     (SIRIUS CI/density modules)
  Jogvan Magnus H. Olsen,   Univ. of Southern Denmark,    Denmark     (Polarizable embedding model, QM/MM)
  Anders Osted,             Copenhagen University,        Denmark     (QM/MM)
  Martin J. Packer,         University of Sheffield,      UK          (SOPPA)
  Filip Pawlowski,          Kazimierz Wielki University,  Poland      (CC3)
  Morten N. Pedersen,       Univ. of Southern Denmark,    Denmark     (Polarizable embedding model)
  Thomas B. Pedersen,       University of Oslo,           Norway      (Cholesky decomposition)
  Patricio F. Provasi,      University of Northeastern,   Argentina   (Analysis of coupling constants in localized orbitals)
  Zilvinas Rinkevicius,     KTH Stockholm,                Sweden      (open-shell DFT, ESR)
  Elias Rudberg,            KTH Stockholm,                Sweden      (DFT grid and basis info)
  Torgeir A. Ruden,         University of Oslo,           Norway      (Numerical derivatives in ABACUS)
  Kenneth Ruud,             UiT The Arctic U. of Norway,  Norway      (DALTON; ABACUS magnetic properties and much more)
  Pawel Salek,              KTH Stockholm,                Sweden      (DALTON; DFT code)
  Claire C. M. Samson       University of Karlsruhe       Germany     (Boys localization, r12 integrals in ERI)
  Alfredo Sanchez de Meras, University of Valencia,       Spain       (CC module, Cholesky decomposition)
  Trond Saue,               Paul Sabatier University,     France      (direct Fock matrix construction)
  Stephan P. A. Sauer,      University of Copenhagen,     Denmark     (SOPPA(CCSD), SOPPA prop., AOSOPPA, vibrational g-factors)
  Andre S. P. Gomes,        CNRS/Universite de Lille,     France      (Frozen density embedding model)
  Bernd Schimmelpfennig,    Forschungszentrum Karlsruhe,  Germany     (AMFI module)
  Anna K. Schnack-Petersen, University of Copenhagen,     Denmark     (RPA(D) and HRPA(D) properties in AOSOPPA)
  Kristian Sneskov,         Aarhus University,            Denmark     (Polarizable embedding model, QM/MM)
  Arnfinn H. Steindal,      UiT The Arctic U. of Norway,  Norway      (parallel QM/MM, Polarizable embedding model)
  Casper Steinmann,         Univ. of Southern Denmark,    Denmark     (QFIT, Polarizable embedding model)
  K. O. Sylvester-Hvid,     University of Copenhagen,     Denmark     (MC-SCRF)
  Peter R. Taylor,          VLSCI/Univ. of Melbourne,     Australia   (Symmetry handling ABACUS, integral transformation)
  Andrew M. Teale,          University of Nottingham,     England     (DFT-AC, DFT-D)
  David P. Tew,             University of Bristol,        England     (CCSD(R12))
  Olav Vahtras,             KTH Stockholm,                Sweden      (triplet response, spin-orbit, ESR, TDDFT, open-shell DFT)
  Lucas Visscher,           Vrije Universiteit Amsterdam, Netherlands (Frozen density embedding model)
  David J. Wilson,          La Trobe University,          Australia   (DFT Hessian and DFT magnetizabilities)
  Hans Agren,               KTH Stockholm,                Sweden      (SIRIUS module, RESPONS, MC-SCRF solvation model)
 --------------------------------------------------------------------------------

     Date and time (Linux)  : Thu Nov 19 15:19:06 2020
     Host name              : bat                                     

 * Work memory size             :    64000000 =  488.28 megabytes.

 * Directories for basis set searches:
   1) /home/olav/dev/py/qcifc/tests/test_h2.d
   2) /home/olav/dev/dalton/dalton/build/master/basis


Compilation information
-----------------------

 Who compiled             | olav
 Host                     | bat
 System                   | Linux-5.4.0-28-generic
 CMake generator          | Unix Makefiles
 Processor                | x86_64
 64-bit integers          | OFF
 MPI                      | ON
 Fortran compiler         | /usr/bin/mpif90
 C compiler               | /usr/bin/mpicc
 C++ compiler             | /usr/bin/mpicxx
 BLAS                     | /usr/lib/x86_64-linux-gnu/libblas.so
 LAPACK                   | /usr/lib/x86_64-linux-gnu/liblapack.so
 Static linking           | OFF
 Last Git revision        | 8060a25a65b546406093248f4212d9407b6636d7
 Git branch               | master
 Configuration time       | 2020-05-04 19:41:14.681289

 * Sequential calculation.


   Content of the .dal input file
 ----------------------------------

**DALTON
.RUN RESPONSE
**WAVE FUN
.HF
.INTERFACE
*SCF INPUT
.NODIIS
*OPTIMI
.NR ALWAYS
**RESPONSE
*LINEAR
.PRINT
 102
.DIPLEN
.FREQUE
 2
 0 0.5
**END OF


   Content of the .mol file
 ----------------------------

BASIS
STO-3G
1
2
    1    0         A
        1.    2    1    1
A   0.0  0.0  0.0
B   0.0  0.0  0.74


       *******************************************************************
       *********** Output from DALTON general input processing ***********
       *******************************************************************

 --------------------------------------------------------------------------------
   Overall default print level:    0
   Print level for DALTON.STAT:    1

    HERMIT 1- and 2-electron integral sections will be executed
    "Old" integral transformation used (limited to max 255 basis functions)
    Wave function sections will be executed (SIRIUS module)
    Dynamic molecular response properties section will be executed (RESPONSE module)
 --------------------------------------------------------------------------------


   ****************************************************************************
   *************** Output of molecule and basis set information ***************
   ****************************************************************************


    The two title cards from your ".mol" input:
    ------------------------------------------------------------------------
 1: 1                                                                       
 2: 2                                                                       
    ------------------------------------------------------------------------

  Coordinates are entered in Angstrom and converted to atomic units.
          - Conversion factor : 1 bohr = 0.52917721 A

  Atomic type no.    1
  --------------------
  Nuclear charge:   1.00000
  Number of symmetry independent centers:    2
  Number of basis sets to read;    2
  Basis set file used for this atomic type with Z =   1 :
     "/home/olav/dev/dalton/dalton/build/master/basis/STO-3G"


                         SYMGRP: Point group information
                         -------------------------------

@    Point group: C1 


                                 Isotopic Masses
                                 ---------------

                           A           1.007825
                           B           1.007825

                       Total mass:     2.015650 amu
                       Natural abundance:  99.970 %

 Center-of-mass coordinates (a.u.):    0.000000    0.000000    0.699199
 Center-of-mass coordinates (Angs):    0.000000    0.000000    0.370000


  Atoms and basis sets
  --------------------

  Number of atom types :    1
  Total number of atoms:    2

  Basis set used is "STO-3G" from the basis set library.

  label    atoms   charge   prim   cont     basis
  ----------------------------------------------------------------------
  B           2    1.0000     3     1      [3s|1s]                                            
  ----------------------------------------------------------------------
  total:      2    2.0000     6     2
  ----------------------------------------------------------------------

  Threshold for neglecting AO integrals:  1.00D-12


  Cartesian Coordinates (a.u.)
  ----------------------------

  Total number of coordinates:    6
  A       :     1  x   0.0000000000    2  y   0.0000000000    3  z   0.0000000000
  B       :     4  x   0.0000000000    5  y   0.0000000000    6  z   1.3983973325


   Interatomic separations (in Angstrom):
   --------------------------------------

            A           B     
            ------      ------
 A     :    0.000000
 B     :    0.740000    0.000000


  Max    interatomic separation is    0.7400 Angstrom (    1.3984 Bohr)
  between atoms    2 and    1, "B     " and "A     ".

  Min HX interatomic separation is    0.7400 Angstrom (    1.3984 Bohr)


  Bond distances (Angstrom):
  --------------------------

                  atom 1     atom 2       distance
                  ------     ------       --------
  bond distance:  B          A            0.740000




 Principal moments of inertia (u*A**2) and principal axes
 --------------------------------------------------------

   IA       0.000000          0.000000    0.000000    1.000000
   IB       0.275942          0.000000    1.000000    0.000000
   IC       0.275942          1.000000    0.000000    0.000000


 Rotational constants
 --------------------

@    The molecule is linear.

               B =      1831465.01 MHz     (   61.091097 cm-1)


@  Nuclear repulsion energy :    0.715104338919 Hartree


                     .---------------------------------------.
                     | Starting in Integral Section (HERMIT) |
                     `---------------------------------------'



 ***************************************************************************************
 ****************** Output from **INTEGRALS input processing (HERMIT) ******************
 ***************************************************************************************


 - Using defaults, no **INTEGRALS input found

 Default print level:        1

 Calculation of one- and two-electron Hamiltonian integrals.

 Center of mass  (bohr):      0.000000000000      0.000000000000      0.699198666248
 Operator center (bohr):      0.000000000000      0.000000000000      0.000000000000
 Gauge origin    (bohr):      0.000000000000      0.000000000000      0.000000000000
 Dipole origin   (bohr):      0.000000000000      0.000000000000      0.000000000000


     ************************************************************************
     ************************** Output from HERINT **************************
     ************************************************************************



                      Nuclear contribution to dipole moments
                      --------------------------------------

                 au               Debye          C m (/(10**-30)

      x      0.00000000         0.00000000         0.00000000
      y      0.00000000         0.00000000         0.00000000
      z      1.39839733         3.55437126        11.85610632



 Threshold for neglecting two-electron integrals:  1.00D-12
 HERMIT - Number of two-electron integrals written:           6 (100.0% )
 HERMIT - Megabytes written:                              0.007

  Total CPU  time used in HERMIT:   0.00 seconds
  Total wall time used in HERMIT:   0.00 seconds


                        .----------------------------------.
                        | End of Integral Section (HERMIT) |
                        `----------------------------------'



                   .--------------------------------------------.
                   | Starting in Wave Function Section (SIRIUS) |
                   `--------------------------------------------'


 CI program in use: SIRIUS-CI

 *** Output from Huckel module :

     Using EWMO model:          T
     Using EHT  model:          F
     Number of Huckel orbitals each symmetry:    2

 EWMO - Energy Weighted Maximum Overlap - is a Huckel type method,
        which normally is better than Extended Huckel Theory.
 Reference: Linderberg and Ohrn, Propagators in Quantum Chemistry (Wiley, 1973)

 Huckel EWMO eigenvalues for symmetry :  1
           -0.861660      -0.138340

 **********************************************************************
 *SIRIUS* a direct, restricted step, second order MCSCF program       *
 **********************************************************************

 
     Date and time (Linux)  : Thu Nov 19 15:19:06 2020
     Host name              : bat                                     

 Title lines from ".mol" input file:
     1                                                                       
     2                                                                       

 Print level on unit LUPRI =   2 is   0
 Print level on unit LUW4  =   2 is   5

@    Restricted, closed shell Hartree-Fock calculation.

@    Time-dependent Hartree-Fock calculation (random phase approximation).

 Initial molecular orbitals are obtained according to
 ".MOSTART EWMO  " input option

     Wave function specification
     ============================
@    Wave function type        --- HF ---
@    Number of closed shell electrons           2
@    Number of electrons in active shells       0
@    Total charge of the molecule               0

@    Spin multiplicity and 2 M_S                1         0
@    Total number of symmetries                 1 (point group: C1 )
@    Reference state symmetry                   1 (irrep name : A  )

     Orbital specifications
     ======================
@    Abelian symmetry species          All |    1
@                                          |  A  
                                       --- |  ---
@    Occupied SCF orbitals               1 |    1
@    Secondary orbitals                  1 |    1
@    Total number of orbitals            2 |    2
@    Number of basis functions           2 |    2

     Optimization information
     ========================
@    Number of configurations                 1
@    Number of orbital rotations              1
     ------------------------------------------
@    Total number of variables                2

     Maximum number of Fock   iterations      0
     Maximum number of DIIS   iterations      0
     Maximum number of QC-SCF iterations     60
     Threshold for SCF convergence     1.00D-05


        SIRIUS QC-HF optimization (SIROPT)
 ================================================


   --- OUTPUT FROM SIRCNO     Keyword = ONLYFD


Calculating AOSUPINT
     (Precalculated AO two-electron integrals are transformed to P-supermatrix elements.
      Threshold for discarding integrals :  1.00D-12 )


 --- MACRO ITERATION  1 ---
 --------------------------

 Total QC-HF energy       :            -1.116759309042810  (MACRO    1)

 - Nuclear repulsion      :             0.715104338918919
 - Inactive energy        :            -1.831863647961729
 - Active energy          :             0.000000000000000

 Norm of total gradient   :             0.000000000000
 -    of CI gradient      :             0.000000000000
 -    of orbital gradient :             0.000000000000
      Virial theorem: -V/T =      1.929636
@    MULPOP   A       0.00; B       0.00; 

 *** Optimization control: QC-HF converged ***
     Number of macro iterations used            1
     Number of micro iterations used            0
     Total number of CPU seconds used         0.00
     Total WALL time used (seconds)           0.00


 *** SCF orbital energy analysis ***

 Number of electrons :    2
 Orbital occupations :    1

 Sym       Hartree-Fock orbital energies

1 A      -0.57855386     0.67114346

    E(LUMO) :     0.67114346 au (symmetry 1)
  - E(HOMO) :    -0.57855386 au (symmetry 1)
  ------------------------------------------
    gap     :     1.24969733 au

 CPU and wall time for SCF :       0.002       0.002


                     .----------------------------------------.
                     | --- SIRIUS OPTIMIZATION STATISTICS --- |
                     `----------------------------------------'


 
     Date and time (Linux)  : Thu Nov 19 15:19:06 2020
     Host name              : bat                                     


  ITER ITMIC     EMCSCF           GRDNRM        RATIO      STPLNG
 ---------------------------------------------------------------------
    1    0     -1.116759309043   0.0000000000  0.000000   0.0000000000


  ITER  INDGCM  GCIMAX      GCINRM     INDGOM  GOBMAX      GOBNRM      GRDNRM
 ------------------------------------------------------------------------------
    1      0    0.000000    0.000000      1    0.000000    0.000000    0.000000


  ITER ITMIC NCLIN NOLIN   TIMMAC    TIMITR    TIMMIC    TIMLIN    TIMMIC/ITMIC
 ------------------------------------------------------------------------------

    1     0     0     0      0.00      0.00      0.00      0.00


 ITER         EMY                 EACTIV              EMCSCF

    1     -1.831863647962      0.000000000000     -1.116759309043


 ITER         DEPRED              DEACT               RATIO

    1      0.000000000000      0.000000000000      0.000000000000


 ITER    BETA           GAMMA             STPLNG              RTRUST

    1      0.00000000  0.00000000      0.000000000000      0.700000000000


                       .-----------------------------------.
                       | --- Final results from SIRIUS --- |
                       `-----------------------------------'


@    Spin multiplicity:           1
@    Spatial symmetry:            1 ( irrep  A   in C1  )
@    Total charge of molecule:    0

@    Final HF energy:              -1.116759309043                 
@    Nuclear repulsion:             0.715104338919
@    Electronic energy:            -1.831863647962

@    Final gradient norm:           0.000000000000

 
     Date and time (Linux)  : Thu Nov 19 15:19:06 2020
     Host name              : bat                                     

File label for MO orbitals:  19Nov20   (CNOORB)

 (Only coefficients > 0.0100 are printed.)

 Molecular orbitals for symmetry species 1  (A  )
 ------------------------------------------------

    Orbital         1        2
   1 A   :1s     0.5488  -1.2125
   2 B   :1s     0.5488   1.2125

  Total CPU  time used in SIRIUS :   0.00 seconds
  Total wall time used in SIRIUS :   0.00 seconds

 
     Date and time (Linux)  : Thu Nov 19 15:19:06 2020
     Host name              : bat                                     


                     .---------------------------------------.
                     | End of Wave Function Section (SIRIUS) |
                     `---------------------------------------'



                 .------------------------------------------------.
                 | Starting in Dynamic Property Section (RESPONS) |
                 `------------------------------------------------'


 ----------------------------------------------------------------------------------------
  RESPONSE  -  an MCSCF, MC-srDFT, DFT, SOPPA and SOPPA-srDFT response property program
 ----------------------------------------------------------------------------------------


 -------- OUTPUT FROM RESPONSE INPUT PROCESSING --------




 Linear Response calculation
 ---------------------------

 Print level                                    : IPRLR  = 102
 Maximum number of iterations                   : MAXITL =  60
 Threshold for relative convergence             : THCLR  = 1.000D-03
 Maximum iterations in optimal orbital algorithm: MAXITO =   5

  2 B-frequencies  0.000000D+00  5.000000D-01

 General print level in RESPONS is IPRRSP =       102

 **** Output from RSPSYM ****

 I, LPPOP(I), PRPLBL(I)  (for excitations)

    1         F  XDIPLEN 
    2         F  YDIPLEN 
    3         F  ZDIPLEN 

 I, LLROP(I), PRPLBL(I)  (for linear response)

    1         T  XDIPLEN 
    2         T  YDIPLEN 
    3         T  ZDIPLEN 

 I, LC6OP(I), PRPLBL(I)  (for C6/C8)

    1         F  XDIPLEN 
    2         F  YDIPLEN 
    3         F  ZDIPLEN 

 I, AQROP(I), BQROP(I), CQROP(I), PRPLBL(I)  (for quadratic response)

    1         F         F         F  XDIPLEN 
    2         F         F         F  YDIPLEN 
    3         F         F         F  ZDIPLEN 

 I, ASMOP(I), BSMOP(I), PRPLBL(I)  (for second mom.)

    1         F         F  XDIPLEN 
    2         F         F  YDIPLEN 
    3         F         F  ZDIPLEN 

 I, ESROPS(I), ESROPT(I), PRPLBL(I) (for ESR prop.)

    1         F         F  XDIPLEN 
    2         F         F  YDIPLEN 
    3         F         F  ZDIPLEN 

 I, ACROP(I), BCROP(I), CCROP(I), DCROP(I), PRPLBL(I)  (for cubic response)

    1         F         F         F         F  XDIPLEN 
    2         F         F         F         F  YDIPLEN 
    3         F         F         F         F  ZDIPLEN 

 I, ATMOP(I), BTMOP(I), CTMOP(I), PRPLBL(I)  (for third mom.)

    1         F         F         F  XDIPLEN 
    2         F         F         F  YDIPLEN 
    3         F         F         F  ZDIPLEN 

 I, ATPOP(I), BTPOP(I), PRPLBL(I) (for cubic double res.)

    1         F         F  XDIPLEN 
    2         F         F  YDIPLEN 
    3         F         F  ZDIPLEN 

 NPRLBL=    3 labels in property calculations in RESPONS:

  I      PRPLBL(I), I=1,NPRLBL 
    1     XDIPLEN 
    2     YDIPLEN 
    3     ZDIPLEN 

@ ** WARNING **
@ ELEMENTS ON PROPERTY FILE  WITH LABEL: XDIPLEN  ARE SMALLER THAN :  1.0000000D-12
@ PROPERTY CALCULATION NOT CARRIED OUT 

@ ** WARNING **
@ ELEMENTS ON PROPERTY FILE  WITH LABEL: YDIPLEN  ARE SMALLER THAN :  1.0000000D-12
@ PROPERTY CALCULATION NOT CARRIED OUT 

 RSPSYM: number of property vectors :

 NGPPP(I) ,I=1,NSYM    0
 NGPLR(I) ,I=1,NSYM    1
 NGPC6(I) ,I=1,NSYM    0
 NAQROP(I),I=1,NSYM    0
 NBQROP(I),I=1,NSYM    0
 NCQROP(I),I=1,NSYM    0
 NASMOP(I),I=1,NSYM    0
 NBSMOP(I),I=1,NSYM    0
 NESRS(I) ,I=1,NSYM    0
 NESRT(I) ,I=1,NSYM    0
 NACROP(I),I=1,NSYM    0
 NBCROP(I),I=1,NSYM    0
 NCCROP(I),I=1,NSYM    0
 NDCROP(I),I=1,NSYM    0
 NATMOP(I),I=1,NSYM    0
 NBTMOP(I),I=1,NSYM    0
 NCTMOP(I),I=1,NSYM    0
 NATPOP(I),I=1,NSYM    0
 NBTPOP(I),I=1,NSYM    0

  SYMMETRY   NO.CONV  NO.START NO.SIMULT

         1         0         0         0

    1 second order properties calculated with symmetry no.    1 and labels:

          ZDIPLEN 

 INFO SIR_INTOPEN, old integral transformation not found as expected, ICASE = 2
 - ICASE = 1: MO integral file MOTWOINT does not exist
 - ICASE = 2: no MO integrals on MOTWOINT
 - ICASE = 3: transformation level on MOTWOINT not sufficient

 2-el. integral transformation level 4: Total CPU and WALL times (sec)       0.001       0.001

 Sorting integrals to Dirac format: Total CPU and WALL times (sec)       0.000       0.000


   SCF energy         :       -1.116759309042810
 -- inactive part     :       -1.831863647961729
 -- nuclear repulsion :        0.715104338918919

 NISHT,NASHT,NORBT,NBAST,NCREF,IREFSY     1     0     2     2     1     1

 **** RSPMC **** MO coefficients read from SIRIFC for symmetry    1

               Column   1     Column   2
       1       0.54884227    -1.21245193
       2       0.54884227     1.21245193
    ==== End of matrix output ====


                     ***************************************
                     *** RHF response calculation (TDHF) ***
                     ***************************************

 ----------------------------------------------------------------
 ----- Linear response calculation
 ----- Symmetry of excitation/property operator(s)    1  ( A  )
 ----------------------------------------------------------------

 Number of excitations of this symmetry            0
 Number of response properties of this symmetry    1
 Number of C6/C8 properties of this symmetry       0


 Perturbation symmetry.     KSYMOP:           1
 Perturbation spin symmetry.TRPLET:           F
 Orbital variables.         KZWOPT:           1
 Configuration variables.   KZCONF:           0
 Total number of variables. KZVAR :           1

 KZYWOP,KZYCON,KZYVAR:           2           0           2

 FOCK CORE MATRIX

     *** Block  1 ***

               Column   1     Column   2
       1      -0.57855386
       2       0.00000000     0.67114346
    ==== End of matrix output ====

 TOTAL FOCK  MATRIX

     *** Block  1 ***

               Column   1     Column   2
       1      -1.15710773     0.00000000
    ==== End of matrix output ====
  DIAGONAL ORBITAL PART OF E(2) 

               Column   1
       1       2.49949465
    ==== End of matrix output ====
  DIAGONAL ORBITAL PART OF S(2)

               Column   1
       1       2.00000000
    ==== End of matrix output ====

 FOCK MATRIX CONTRIBUTION TO DIAGONAL ORBITAL PART OF E[2]

 (FOCK TYPE DECOUPLING OF TWO ELECTRON DENSITY MATRIX USED)

     Orbital operator symmetry = 1
     (only elements abs greater than 1.0D-01 times max abs value)

      Index(r,s)     r    s      operator value
      ----------    --   --      --------------
              1      1    2        2.4994946539

 DIAGONAL ORBITAL PART OF S[2]

               Column   1
       1       2.00000000
    ==== End of matrix output ====


 RSPLR -- linear response calculation for symmetry 1  ( A  )
 RSPLR -- operator label : ZDIPLEN 
 RSPLR -- operator spin  :   0
 RSPLR -- frequencies    :     0.000000  0.500000


 Output from PRPCTL:
 ===================

 Property label = ZDIPLEN 


 PROPERTY: ZDIPLEN  IN MO. BASIS

               Column   1     Column   2
       1       0.69919867     0.93055634
       2       0.93055634     0.69919867
    ==== End of matrix output ====

PRPCTL test output:  Reference state expectation value for ZDIPLEN 

 *** Individual non-zero orbital contributions
 *** to the expectation value for property ZDIPLEN  :

     Inactive       1  1 in sym 1 :     1.39839733

     ZDIPLEN  inactive part:     1.39839733
     ZDIPLEN  active part  :     0.00000000
     ZDIPLEN  total        :     1.39839733


                 Gradient vector in RSPLR for operator ZDIPLEN :
                 -----------------------------------------------


 Norm :   2.6320D+00

               Column   1     Column   2
       1       1.86111268    -1.86111268
    ==== End of matrix output ====



 ---  SOLVING SETS OF LINEAR EQUATIONS FOR LINEAR RESPONSE PROPERTIES ---

 Operator symmetry = 1  ( A  ); triplet =   F

  KLIDEN,KUSE,KMAXVE,LBINTM,NORBT,NASHT,KZYVAR,LWRK 
           1          16          24           4           2           0           2    62916953
  LACIMX           0

 MAXIMUM NUMBER OF SIMULTANEOUS TRIAL VECTORS:     120

 MAXIMUM NUMBER OF SIMULTANEOUS TRIAL VECTORS IN RSPNEX:     120
  LINEQ,RESTPP,ORBSPC T F F
  FREQ =   0.0000000000000000       0.50000000000000000        0.0000000000000000        0.0000000000000000        0.0000000000000000        0.0000000000000000        0.0000000000000000        0.0000000000000000        0.0000000000000000        0.0000000000000000        0.0000000000000000        0.0000000000000000        0.0000000000000000        0.0000000000000000        0.0000000000000000        0.0000000000000000        0.0000000000000000        0.0000000000000000        0.0000000000000000        0.0000000000000000        0.0000000000000000        0.0000000000000000        0.0000000000000000        0.0000000000000000        0.0000000000000000        0.0000000000000000        0.0000000000000000        0.0000000000000000        0.0000000000000000        0.0000000000000000        0.0000000000000000        0.0000000000000000        0.0000000000000000        0.0000000000000000        0.0000000000000000        0.0000000000000000        0.0000000000000000        0.0000000000000000        0.0000000000000000        0.0000000000000000        0.0000000000000000        0.0000000000000000        0.0000000000000000        0.0000000000000000        0.0000000000000000        0.0000000000000000        0.0000000000000000        0.0000000000000000        0.0000000000000000        0.0000000000000000        0.0000000000000000        0.0000000000000000        0.0000000000000000        0.0000000000000000        0.0000000000000000        0.0000000000000000        0.0000000000000000        0.0000000000000000        0.0000000000000000        0.0000000000000000        0.0000000000000000        0.0000000000000000        0.0000000000000000        0.0000000000000000        0.0000000000000000        0.0000000000000000        0.0000000000000000        0.0000000000000000        0.0000000000000000        0.0000000000000000        0.0000000000000000        0.0000000000000000        0.0000000000000000        0.0000000000000000        0.0000000000000000        0.0000000000000000        0.0000000000000000        0.0000000000000000        0.0000000000000000        0.0000000000000000        0.0000000000000000        0.0000000000000000        0.0000000000000000        0.0000000000000000        0.0000000000000000        0.0000000000000000        0.0000000000000000        0.0000000000000000        0.0000000000000000        0.0000000000000000        0.0000000000000000        0.0000000000000000        0.0000000000000000        0.0000000000000000        0.0000000000000000        0.0000000000000000        0.0000000000000000        0.0000000000000000        0.0000000000000000        0.0000000000000000        0.0000000000000000        0.0000000000000000        0.0000000000000000        0.0000000000000000        0.0000000000000000        0.0000000000000000        0.0000000000000000        0.0000000000000000        0.0000000000000000        0.0000000000000000        0.0000000000000000        0.0000000000000000        0.0000000000000000        0.0000000000000000        0.0000000000000000        0.0000000000000000        0.0000000000000000        0.0000000000000000        0.0000000000000000        0.0000000000000000     

 NOSIM (Z,Y) ORBITAL TRIAL VECTORS    2

               Column   1     Column   2     Column   3     Column   4
       1       0.74459558    -0.74459558     1.24115993    -0.53182327
    ==== End of matrix output ====

    I       IBTYP(I)          I=1,NLSIM NLSIM    2
         1         1
         2         1

 ** TEST OF Z = Y OR Z = -Y:
 (Z Y) norm squared = 1.10884517D+00
 Z + Y norm squared = 0.00000000D+00

 Z = -Y in trial vector no.   1
 Y component removed.

 ** TEST OF Z = Y OR Z = -Y:
 (Z Y) norm squared = 1.82331396D+00
 Z + Y norm squared = 5.03158502D-01

 RSPORT: b-vector, norm**2:     1 5.54423D-01
 RSPORT, norm and <ZY/YZ> overlap before S-1/2  1.000000D+00   0.0000000000D+00

 (RSPORT) b-vector no.  2 is removed because of linear dependence; 0.00000D+00
RSPORT:    1 out of    2 new trial vectors linear dependent

 AFTER RSPORT IN LRST

    I       IBTYP(I)          I=1,NLSIM NLSIM=    1
    1         1
 AFTER START ROUTINE BINMEM T

 ** RSPCTL MICROITERATION NUMBER    1
 NSIM,MAXSIM,JEXSIM    1  120    1
  NCSIM,NOSIM           0           1
           1  ZYMAT MATRICES

               Column   1     Column   2
       2       1.00000000     0.00000000
    ==== End of matrix output ====


Output from "RSPOLI". NCSIM,NOSIM=         0         1
TRPLET,HSROHF,DOHSRDFT,DOMCSRDFT,DFTADD         F         F         F         F         F
TDHF,NASHT         T         0

 FCOEX MULLIKEN DISTRIBUTION CONTRB FOR VECTOR     1

               Column   1     Column   2
       2       0.66371139     0.00000000
    ==== End of matrix output ====

 FCOEX contribution for vector    1

               Column   1     Column   2
       1       0.00000000     0.18121046
       2       0.66371139     0.00000000
    ==== End of matrix output ====

 FCOCO contribution for vector    1

               Column   1     Column   2
       2      -0.18121046     0.00000000
    ==== End of matrix output ====
           1 . ONE-INDEX TRANSFORMED FOCK CORE MATRIX BEFORE DIRECT [FC,ZYMAT] CONTRIBUTION

               Column   1     Column   2
       1       0.00000000    -0.18121046
       2       0.30129048     0.00000000
    ==== End of matrix output ====
           1 . ONE-INDEX TRANSFORMED FOCK CORE MATRIX

               Column   1     Column   2
       1       0.00000000    -0.18121046
       2      -0.94840685     0.00000000
    ==== End of matrix output ====
  CORE FOCK MATRIX 

     *** Block  1 ***

               Column   1     Column   2
       1      -0.57855386
       2       0.00000000     0.67114346
    ==== End of matrix output ====

 FCX total contribution for vector    1

               Column   1     Column   2
       1       0.00000000    -0.18121046
       2      -0.94840685     0.00000000
    ==== End of matrix output ====
  BEFORE WRITING IBTYP ON LURSP1 LINEQ: T

 TRIAL VECTORS FOR RESTART:    1

 INDEX VECTOR FOR E(2) TRANSFORMED TRIAL VECTORS
           1

 IBTYP VECTOR FOR E(2) TRANSFORMED TRIAL VECTORS
           1
 RSPRED: GRADIENT VECTOR (Z-part and Y-part)

               Column   1     Column   2
       1       1.86111268    -1.86111268
    ==== End of matrix output ====
           2  REDUCED GRADIENT VECTORS DIM IZYRED           0

  1. REDUCED GRADIENT VECTOR (GZ, GY) DIM KZRED    1

               Column   1
       1       1.86111268
       2      -1.86111268
    ==== End of matrix output ====

  2. REDUCED GRADIENT VECTOR (GZ, GY) DIM KZRED    1

               Column   1
       1       1.86111268
       2      -1.86111268
    ==== End of matrix output ====
           1  ZYMAT MATRICES

               Column   1     Column   2
       2       1.00000000     0.00000000
    ==== End of matrix output ====

 RSPRED: REDUCED HESSIAN MATRIX:

               Column   1     Column   2
       1       1.89681370
       2      -0.36242092     1.89681370
    ==== End of matrix output ====

 RSPRED: REDUCED METRIC MATRIX:

               Column   1     Column   2
       1       2.00000000
       2      -0.00000000    -2.00000000
    ==== End of matrix output ====
  AFREQ,KZYRED,IGP   0.0000000000000000                2           1

 REDUCED E(2)-W*S(2) MATRIX:

               Column   1     Column   2
       1       1.89681370
       2      -0.36242092     1.89681370
    ==== End of matrix output ====
 REDUCED GRADIENT VECTORS DIM (2,KZRED)           1

               Column   1
       1       1.86111268
       2      -1.86111268
    ==== End of matrix output ====

 GP * SOLUTION vector at frequency     0.00000 a.u.
 after    1 linear transformations is      3.06629545D+00
 INERTIA (POS,ZER,NEG) of reduced matrix is    2    0    0
 Determinant of reduced matrix is  3.47 * 10 **  0.0

 REDUCED PROPERTY VECTOR AND REDUCED SOLUTION:

    1   1.861113D+00   8.237802D-01
    2  -1.861113D+00  -8.237802D-01
  AFREQ,KZYRED,IGP  0.50000000000000000                2           2

 REDUCED E(2)-W*S(2) MATRIX:

               Column   1     Column   2
       1       0.89681370
       2      -0.36242092     2.89681370
    ==== End of matrix output ====
 REDUCED GRADIENT VECTORS DIM (2,KZRED)           1

               Column   1
       1       1.86111268
       2      -1.86111268
    ==== End of matrix output ====

 GP * SOLUTION vector at frequency     0.50000 a.u.
 after    1 linear transformations is      4.30944533D+00
 INERTIA (POS,ZER,NEG) of reduced matrix is    2    0    0
 Determinant of reduced matrix is  2.47 * 10 **  0.0

 REDUCED PROPERTY VECTOR AND REDUCED SOLUTION:

    1   1.861113D+00   1.912300D+00
    2  -1.861113D+00  -4.032206D-01


 EIGENVECTOR NO.    1
          TRIAL VEC.   coeff. for ZY       coeff. for YZ

              1        8.237802D-01       -8.237802D-01


 EIGENVECTOR NO.    2
          TRIAL VEC.   coeff. for ZY       coeff. for YZ

              1        1.912300D+00       -4.032206D-01
  RSPNEX: Solution vectors no.           1  to           2  (Z1 Y1 ...)

               Column   1     Column   2     Column   3     Column   4
       1       0.82378017    -0.82378017     1.91230027    -0.40322064
    ==== End of matrix output ====
           1  ZYMAT MATRICES

               Column   1     Column   2
       1       0.00000000    -0.40322064
       2       1.91230027     0.00000000
    ==== End of matrix output ====
  RSPNEX: (Z,Y) residual vectors no.           1  to           2

               Column   1     Column   2     Column   3     Column   4
       1     2.220446E-16  -2.220446E-16  -4.440892E-16   0.000000E+00
    ==== End of matrix output ====

 ROOT:  1 RESIDUAL TOT: 3.14018D-16 CONF: 0.00000D+00 ORB: 3.14018D-16
          BNORM: 1.16500D+00 EIVAL: 0.00000D+00

 ROOT:  2 RESIDUAL TOT: 4.44089D-16 CONF: 0.00000D+00 ORB: 4.44089D-16
          BNORM: 1.95435D+00 EIVAL: 5.00000D-01

 NUMBER OF TRIAL VECTORS IN THIS LOAD    2   OFFSET FOR THIS LOAD    0
    0 NON-CONVERGED SOLUTION VECTORS THIS LOAD, TOTAL:    0
    0 LINEAR INDEPENDENT TRIAL VECTORS ADDED TO PREVIOUS    0

 *** THE REQUESTED    2 SOLUTION VECTORS CONVERGED

 Convergence of RSP solution vectors, threshold = 1.00D-03
 ---------------------------------------------------------------
 (dimension of paired reduced space:    2)
 RSP solution vector no.    1; norm of residual   2.70D-16
 RSP solution vector no.    2; norm of residual   2.27D-16

 *** RSPCTL MICROITERATIONS CONVERGED


 EIGENVECTOR NO.    1
          TRIAL VEC.   coeff. for ZY       coeff. for YZ

              1        8.237802D-01       -8.237802D-01


 EIGENVECTOR NO.    2
          TRIAL VEC.   coeff. for ZY       coeff. for YZ

              1        1.912300D+00       -4.032206D-01

 EIGENVECTOR NUMBER     1

     Response orbital operator symmetry = 1
     (only scaled elements abs greater than   10.00 % of max abs value)

      Index(r,s)      r      s        (r s) operator      (s r) operator      (r s) scaled        (s r) scaled
      ----------    -----  -----      --------------      --------------      --------------      --------------
           1         1(1)   2(1)        0.8237801715       -0.8237801715        1.1650010910       -1.1650010910


                 Solution vectors in RSPLR for operator ZDIPLEN :
                 ------------------------------------------------


               Column   1     Column   2
       1       0.82378017    -0.82378017
    ==== End of matrix output ====
 Norm:     1.1650D+00

 EIGENVECTOR NUMBER     2

     Response orbital operator symmetry = 1
     (only scaled elements abs greater than   10.00 % of max abs value)

      Index(r,s)      r      s        (r s) operator      (s r) operator      (r s) scaled        (s r) scaled
      ----------    -----  -----      --------------      --------------      --------------      --------------
           1         1(1)   2(1)        1.9123002732       -0.4032206368        2.7044009817       -0.5702400932


                 Solution vectors in RSPLR for operator ZDIPLEN :
                 ------------------------------------------------


               Column   1     Column   2
       1       1.91230027    -0.40322064
    ==== End of matrix output ====
 Norm:     1.9543D+00
           1  ZYMAT MATRICES

               Column   1     Column   2
       1       0.00000000    -0.40322064
       2       1.91230027     0.00000000
    ==== End of matrix output ====


                 Residual vectors in RSPLR for operator ZDIPLEN :
                 ------------------------------------------------


               Column   1     Column   2
       1     2.220446E-16  -2.220446E-16
    ==== End of matrix output ====
 Norm:     3.1402D-16


                 Residual vectors in RSPLR for operator ZDIPLEN :
                 ------------------------------------------------


               Column   1     Column   2
       1    -4.440892E-16   0.000000E+00
    ==== End of matrix output ====
 Norm:     4.4409D-16


           Final output of second order properties from linear response
           ------------------------------------------------------------


@ Spin symmetry of operators: singlet

 Note that minus the linear response function: - << A; B >>(omega) is printed.
 The results are of quadratic accuracy using Sellers formula.


 Output from PRPCTL:
 ===================

 Property label = ZDIPLEN 


 PROPERTY: ZDIPLEN  IN MO. BASIS

               Column   1     Column   2
       1       0.69919867     0.93055634
       2       0.93055634     0.69919867
    ==== End of matrix output ====

PRPCTL test output:  Reference state expectation value for ZDIPLEN 

 *** Individual non-zero orbital contributions
 *** to the expectation value for property ZDIPLEN  :

     Inactive       1  1 in sym 1 :     1.39839733

     ZDIPLEN  inactive part:     1.39839733
     ZDIPLEN  active part  :     0.00000000
     ZDIPLEN  total        :     1.39839733

@ FREQUENCY INDEPENDENT SECOND ORDER PROPERTIES

@ -<< ZDIPLEN  ; ZDIPLEN  >> =  3.066295447276E+00

@ FREQUENCY DEPENDENT SECOND ORDER PROPERTIES WITH FREQUENCY :

@    a.u.:  5.0000000D-01
@    cm-1:  1.0973731D+05
@    eV  :  1.3605692D+01
@  kJ/mol:  1.3127498D+03
@    nm  :  9.1126706D+01

@ -<< ZDIPLEN  ; ZDIPLEN  >> =  4.309445328973E+00


 Time used in linear response calculation is      0.00 CPU seconds for symmetry 1

  Total CPU  time used in RESPONSE:   0.00 seconds
  Total wall time used in RESPONSE:   0.00 seconds


                   .-------------------------------------------.
                   | End of Dynamic Property Section (RESPONS) |
                   `-------------------------------------------'

  Total CPU  time used in DALTON:   0.02 seconds
  Total wall time used in DALTON:   0.02 seconds

 
     Date and time (Linux)  : Thu Nov 19 15:19:06 2020
     Host name              : bat                                     
