[Molden Format]
[GTO]

    1 0
 s   6 1.00
      71.6168370    0.1543289700
      13.0450960    0.5353281400
       3.5305122    0.4446345400
       2.9412494    0.0000000000
       0.6834831    0.0000000000
       0.2222899    0.0000000000
 s   6 1.00
      71.6168370    0.0000000000
      13.0450960    0.0000000000
       3.5305122    0.0000000000
       2.9412494   -0.0999672300
       0.6834831    0.3995128300
       0.2222899    0.7001154700
 p   3 1.00
       2.9412494    0.1559162700
       0.6834831    0.6076837200
       0.2222899    0.3919573900

    2 0
 s   6 1.00
     130.7093200    0.1543289700
      23.8088610    0.5353281400
       6.4436083    0.4446345400
       5.0331513    0.0000000000
       1.1695961    0.0000000000
       0.3803890    0.0000000000
 s   6 1.00
     130.7093200    0.0000000000
      23.8088610    0.0000000000
       6.4436083    0.0000000000
       5.0331513   -0.0999672300
       1.1695961    0.3995128300
       0.3803890    0.7001154700
 p   3 1.00
       5.0331513    0.1559162700
       1.1695961    0.6076837200
       0.3803890    0.3919573900

    3 0
 s   3 1.00
       3.4252509    0.1543289700
       0.6239137    0.5353281400
       0.1688554    0.4446345400
[SCFCONV]
scf-first  1  THROUGH  32
     -111.6272789335
     -111.6606993978
     -111.7268035627
     -111.7277357771
     -111.7281346295
     -111.7283744706
     -111.7285915050
     -111.7286534610
     -111.7286799411
     -111.7286944171
     -111.7286952492
     -111.7286955597
     -111.7286955754
     -111.7286955794
     -111.7286955797
     -111.7286955798
     -111.7286955798
     -111.7286955798
     -111.7286955798
     -111.7286955798
     -111.7286955798
     -111.7286955798
     -111.7286955798
     -111.7286955798
     -111.7286955798
     -111.7286955798
     -111.7286955798
     -111.7286955798
     -111.7286955798
     -111.7286955798
     -111.7286955798
     -111.7286955798

[5D]

[MO]
Sym= A  
Ene=  -20.3361
Spin= Alpha
Occup= 2.0000
    1        0.000502
    2       -0.007173
    3        0.000239
    4       -0.006385
    5        0.000205
    6        0.994288
    7        0.026010
    8        0.000368
    9       -0.005643
   10        0.000182
   11        0.000223
Sym= A  
Ene=  -11.0870
Spin= Alpha
Occup= 2.0000
    1       -0.993097
    2       -0.029614
    3       -0.003827
    4       -0.003254
    5        0.000069
    6       -0.000111
    7        0.006015
    8        0.000691
    9       -0.001610
   10        0.000057
   11        0.006784
Sym= A  
Ene=   -1.3509
Spin= Alpha
Occup= 2.0000
    1       -0.118817
    2        0.264293
    3        0.004679
    4        0.158737
    5       -0.004991
    6       -0.221905
    7        0.779993
    8        0.019050
    9       -0.173308
   10        0.005662
   11        0.032011
Sym= A  
Ene=   -0.7563
Spin= Alpha
Occup= 2.0000
    1        0.173861
    2       -0.552727
    3       -0.231928
    4        0.123560
    5       -0.005960
    6       -0.100312
    7        0.453482
    8       -0.093763
    9        0.243032
   10       -0.008530
   11       -0.385091
Sym= A  
Ene=   -0.5669
Spin= Alpha
Occup= 2.0000
    1       -0.054403
    2        0.184348
    3       -0.321743
    4        0.292678
    5       -0.012113
    6        0.083440
    7       -0.437098
    8       -0.260216
    9       -0.600411
   10        0.016741
   11       -0.260398
Sym= A  
Ene=   -0.4776
Spin= Alpha
Occup= 2.0000
    1        0.056168
    2       -0.227202
    3        0.275226
    4        0.324231
    5       -0.007854
    6        0.020428
    7       -0.124378
    8        0.745984
    9       -0.262126
   10        0.014882
   11       -0.168262
Sym= A  
Ene=   -0.4606
Spin= Alpha
Occup= 2.0000
    1       -0.000000
    2        0.000000
    3        0.004562
    4       -0.016415
    5       -0.517829
    6        0.000000
    7       -0.000000
    8        0.006626
    9       -0.023843
   10       -0.752141
   11        0.000000
Sym= A  
Ene=   -0.0329
Spin= Alpha
Occup= 1.0000
    1        0.113793
    2       -0.555408
    3        0.570448
    4        0.372039
    5       -0.006768
    6       -0.009086
    7        0.025797
    8       -0.590449
    9       -0.184922
   10        0.000660
   11        0.345608
Sym= A  
Ene=    0.2900
Spin= Alpha
Occup= 0.0000
    1        0.000000
    2       -0.000000
    3        0.007769
    4       -0.027956
    5       -0.881890
    6        0.000000
    7       -0.000000
    8       -0.006105
    9        0.021966
   10        0.692936
   11       -0.000000
Sym= A  
Ene=    0.6875
Spin= Alpha
Occup= 0.0000
    1       -0.143782
    2        0.911746
    3        0.878242
    4       -0.170806
    5        0.013152
    6        0.025566
    7       -0.161145
    8       -0.265230
    9        0.202534
   10       -0.008757
   11       -1.196224
Sym= A  
Ene=    0.9315
Spin= Alpha
Occup= 0.0000
    1        0.102855
    2       -0.696104
    3        0.197483
    4       -1.151742
    5        0.038251
    6       -0.116801
    7        0.880700
    8        0.014002
    9       -0.917823
   10        0.029219
   11       -0.203639
[Atoms] AU
C          1     6        -3.0015786160        -1.4563174382         0.0550080378
O          2     8        -3.1314330364         0.8240509816        -0.0184248297
H          3     1        -1.1728925345        -2.4468589606         0.1025195320
